ITEM: TIMESTEP
2000000
ITEM: NUMBER OF ATOMS
559
ITEM: BOX BOUNDS pp pp pp
-10.00000000000e+00 1.000000000e+01
-10.00000000000e+00 1.000000000e+01
-10.00000000000e+00 1.000000000e+01
ITEM: ATOMS id type x y z c_orient[1] c_orient[2] c_orient[3] c_orient[4] c_shape[1] c_shape[2] c_shape[3] 
1 1 -8.651700 -8.651700 -8.651700 0.0 0.0 0.0 0.0 1.5 0.5 0.5
2 1 -8.651700 -8.651700 -5.767800 0.0 0.0 0.0 0.0 1.5 0.5 0.5
3 1 -8.651700 -8.651700 -2.883900 0.0 0.0 0.0 0.0 1.5 0.5 0.5
4 1 -8.651700 -8.651700 0.000000 0.0 0.0 0.0 0.0 1.5 0.5 0.5
5 1 -8.651700 -8.651700 2.883900 0.0 0.0 0.0 0.0 1.5 0.5 0.5
6 1 -8.651700 -8.651700 5.767800 0.0 0.0 0.0 0.0 1.5 0.5 0.5
7 1 -8.651700 -8.651700 8.651700 0.0 0.0 0.0 0.0 1.5 0.5 0.5
8 1 -8.651700 -5.767800 -8.651700 0.0 0.0 0.0 0.0 1.5 0.5 0.5
9 1 -8.651700 -5.767800 -5.767800 0.0 0.0 0.0 0.0 1.5 0.5 0.5
10 1 -8.651700 -5.767800 -2.883900 0.0 0.0 0.0 0.0 1.5 0.5 0.5
11 1 -8.651700 -5.767800 0.000000 0.0 0.0 0.0 0.0 1.5 0.5 0.5
12 1 -8.651700 -5.767800 2.883900 0.0 0.0 0.0 0.0 1.5 0.5 0.5
13 1 -8.651700 -5.767800 5.767800 0.0 0.0 0.0 0.0 1.5 0.5 0.5
14 1 -8.651700 -5.767800 8.651700 0.0 0.0 0.0 0.0 1.5 0.5 0.5
15 1 -8.651700 -2.883900 -8.651700 0.0 0.0 0.0 0.0 1.5 0.5 0.5
16 1 -8.651700 -2.883900 -5.767800 0.0 0.0 0.0 0.0 1.5 0.5 0.5
17 1 -8.651700 -2.883900 -2.883900 0.0 0.0 0.0 0.0 1.5 0.5 0.5
18 1 -8.651700 -2.883900 0.000000 0.0 0.0 0.0 0.0 1.5 0.5 0.5
19 1 -8.651700 -2.883900 2.883900 0.0 0.0 0.0 0.0 1.5 0.5 0.5
20 1 -8.651700 -2.883900 5.767800 0.0 0.0 0.0 0.0 1.5 0.5 0.5
21 1 -8.651700 -2.883900 8.651700 0.0 0.0 0.0 0.0 1.5 0.5 0.5
22 1 -8.651700 -0.000000 -8.651700 0.0 0.0 0.0 0.0 1.5 0.5 0.5
23 1 -8.651700 -0.000000 -5.767800 0.0 0.0 0.0 0.0 1.5 0.5 0.5
24 1 -8.651700 -0.000000 -2.883900 0.0 0.0 0.0 0.0 1.5 0.5 0.5
25 1 -8.651700 0.000000 0.000000 0.0 0.0 0.0 0.0 1.5 0.5 0.5
26 1 -8.651700 0.000000 2.883900 0.0 0.0 0.0 0.0 1.5 0.5 0.5
27 1 -8.651700 0.000000 5.767800 0.0 0.0 0.0 0.0 1.5 0.5 0.5
28 1 -8.651700 0.000000 8.651700 0.0 0.0 0.0 0.0 1.5 0.5 0.5
29 1 -8.651700 2.883900 -8.651700 0.0 0.0 0.0 0.0 1.5 0.5 0.5
30 1 -8.651700 2.883900 -5.767800 0.0 0.0 0.0 0.0 1.5 0.5 0.5
31 1 -8.651700 2.883900 -2.883900 0.0 0.0 0.0 0.0 1.5 0.5 0.5
32 1 -8.651700 2.883900 0.000000 0.0 0.0 0.0 0.0 1.5 0.5 0.5
33 1 -8.651700 2.883900 2.883900 0.0 0.0 0.0 0.0 1.5 0.5 0.5
34 1 -8.651700 2.883900 5.767800 0.0 0.0 0.0 0.0 1.5 0.5 0.5
35 1 -8.651700 2.883900 8.651700 0.0 0.0 0.0 0.0 1.5 0.5 0.5
36 1 -8.651700 5.767800 -8.651700 0.0 0.0 0.0 0.0 1.5 0.5 0.5
37 1 -8.651700 5.767800 -5.767800 0.0 0.0 0.0 0.0 1.5 0.5 0.5
38 1 -8.651700 5.767800 -2.883900 0.0 0.0 0.0 0.0 1.5 0.5 0.5
39 1 -8.651700 5.767800 0.000000 0.0 0.0 0.0 0.0 1.5 0.5 0.5
40 1 -8.651700 5.767800 2.883900 0.0 0.0 0.0 0.0 1.5 0.5 0.5
41 1 -8.651700 5.767800 5.767800 0.0 0.0 0.0 0.0 1.5 0.5 0.5
42 1 -8.651700 5.767800 8.651700 0.0 0.0 0.0 0.0 1.5 0.5 0.5
43 1 -8.651700 8.651700 -8.651700 0.0 0.0 0.0 0.0 1.5 0.5 0.5
44 1 -8.651700 8.651700 -5.767800 0.0 0.0 0.0 0.0 1.5 0.5 0.5
45 1 -8.651700 8.651700 -2.883900 0.0 0.0 0.0 0.0 1.5 0.5 0.5
46 1 -8.651700 8.651700 0.000000 0.0 0.0 0.0 0.0 1.5 0.5 0.5
47 1 -8.651700 8.651700 2.883900 0.0 0.0 0.0 0.0 1.5 0.5 0.5
48 1 -8.651700 8.651700 5.767800 0.0 0.0 0.0 0.0 1.5 0.5 0.5
49 1 -8.651700 8.651700 8.651700 0.0 0.0 0.0 0.0 1.5 0.5 0.5
50 1 -5.767800 -8.651700 -8.651700 0.0 0.0 0.0 0.0 1.5 0.5 0.5
51 1 -5.767800 -8.651700 -5.767800 0.0 0.0 0.0 0.0 1.5 0.5 0.5
52 1 -5.767800 -8.651700 -2.883900 0.0 0.0 0.0 0.0 1.5 0.5 0.5
53 1 -5.767800 -8.651700 0.000000 0.0 0.0 0.0 0.0 1.5 0.5 0.5
54 1 -5.767800 -8.651700 2.883900 0.0 0.0 0.0 0.0 1.5 0.5 0.5
55 1 -5.767800 -8.651700 5.767800 0.0 0.0 0.0 0.0 1.5 0.5 0.5
56 1 -5.767800 -8.651700 8.651700 0.0 0.0 0.0 0.0 1.5 0.5 0.5
57 1 -5.767800 -5.767800 -8.651700 0.0 0.0 0.0 0.0 1.5 0.5 0.5
58 1 -5.767800 -5.767800 -5.767800 0.0 0.0 0.0 0.0 1.5 0.5 0.5
59 1 -5.767800 -5.767800 -2.883900 0.0 0.0 0.0 0.0 1.5 0.5 0.5
60 1 -5.767800 -5.767800 0.000000 0.0 0.0 0.0 0.0 1.5 0.5 0.5
61 1 -5.767800 -5.767800 2.883900 0.0 0.0 0.0 0.0 1.5 0.5 0.5
62 1 -5.767800 -5.767800 5.767800 0.0 0.0 0.0 0.0 1.5 0.5 0.5
63 1 -5.767800 -5.767800 8.651700 0.0 0.0 0.0 0.0 1.5 0.5 0.5
64 1 -5.767800 -2.883900 -8.651700 0.0 0.0 0.0 0.0 1.5 0.5 0.5
65 1 -5.767800 -2.883900 -5.767800 0.0 0.0 0.0 0.0 1.5 0.5 0.5
66 1 -5.767800 -2.883900 -2.883900 0.0 0.0 0.0 0.0 1.5 0.5 0.5
67 1 -5.767800 -2.883900 0.000000 0.0 0.0 0.0 0.0 1.5 0.5 0.5
68 1 -5.767800 -2.883900 2.883900 0.0 0.0 0.0 0.0 1.5 0.5 0.5
69 1 -5.767800 -2.883900 5.767800 0.0 0.0 0.0 0.0 1.5 0.5 0.5
70 1 -5.767800 -2.883900 8.651700 0.0 0.0 0.0 0.0 1.5 0.5 0.5
71 1 -5.767800 -0.000000 -8.651700 0.0 0.0 0.0 0.0 1.5 0.5 0.5
72 1 -5.767800 -0.000000 -5.767800 0.0 0.0 0.0 0.0 1.5 0.5 0.5
73 1 -5.767800 -0.000000 -2.883900 0.0 0.0 0.0 0.0 1.5 0.5 0.5
74 1 -5.767800 0.000000 0.000000 0.0 0.0 0.0 0.0 1.5 0.5 0.5
75 1 -5.767800 0.000000 2.883900 0.0 0.0 0.0 0.0 1.5 0.5 0.5
76 1 -5.767800 0.000000 5.767800 0.0 0.0 0.0 0.0 1.5 0.5 0.5
77 1 -5.767800 0.000000 8.651700 0.0 0.0 0.0 0.0 1.5 0.5 0.5
78 1 -5.767800 2.883900 -8.651700 0.0 0.0 0.0 0.0 1.5 0.5 0.5
79 1 -5.767800 2.883900 -5.767800 0.0 0.0 0.0 0.0 1.5 0.5 0.5
80 1 -5.767800 2.883900 -2.883900 0.0 0.0 0.0 0.0 1.5 0.5 0.5
81 1 -5.767800 2.883900 0.000000 0.0 0.0 0.0 0.0 1.5 0.5 0.5
82 1 -5.767800 2.883900 2.883900 0.0 0.0 0.0 0.0 1.5 0.5 0.5
83 1 -5.767800 2.883900 5.767800 0.0 0.0 0.0 0.0 1.5 0.5 0.5
84 1 -5.767800 2.883900 8.651700 0.0 0.0 0.0 0.0 1.5 0.5 0.5
85 1 -5.767800 5.767800 -8.651700 0.0 0.0 0.0 0.0 1.5 0.5 0.5
86 1 -5.767800 5.767800 -5.767800 0.0 0.0 0.0 0.0 1.5 0.5 0.5
87 1 -5.767800 5.767800 -2.883900 0.0 0.0 0.0 0.0 1.5 0.5 0.5
88 1 -5.767800 5.767800 0.000000 0.0 0.0 0.0 0.0 1.5 0.5 0.5
89 1 -5.767800 5.767800 2.883900 0.0 0.0 0.0 0.0 1.5 0.5 0.5
90 1 -5.767800 5.767800 5.767800 0.0 0.0 0.0 0.0 1.5 0.5 0.5
91 1 -5.767800 5.767800 8.651700 0.0 0.0 0.0 0.0 1.5 0.5 0.5
92 1 -5.767800 8.651700 -8.651700 0.0 0.0 0.0 0.0 1.5 0.5 0.5
93 1 -5.767800 8.651700 -5.767800 0.0 0.0 0.0 0.0 1.5 0.5 0.5
94 1 -5.767800 8.651700 -2.883900 0.0 0.0 0.0 0.0 1.5 0.5 0.5
95 1 -5.767800 8.651700 0.000000 0.0 0.0 0.0 0.0 1.5 0.5 0.5
96 1 -5.767800 8.651700 2.883900 0.0 0.0 0.0 0.0 1.5 0.5 0.5
97 1 -5.767800 8.651700 5.767800 0.0 0.0 0.0 0.0 1.5 0.5 0.5
98 1 -5.767800 8.651700 8.651700 0.0 0.0 0.0 0.0 1.5 0.5 0.5
99 1 -2.883900 -8.651700 -8.651700 0.0 0.0 0.0 0.0 1.5 0.5 0.5
100 1 -2.883900 -8.651700 -5.767800 0.0 0.0 0.0 0.0 1.5 0.5 0.5
101 1 -2.883900 -8.651700 -2.883900 0.0 0.0 0.0 0.0 1.5 0.5 0.5
102 1 -2.883900 -8.651700 0.000000 0.0 0.0 0.0 0.0 1.5 0.5 0.5
103 1 -2.883900 -8.651700 2.883900 0.0 0.0 0.0 0.0 1.5 0.5 0.5
104 1 -2.883900 -8.651700 5.767800 0.0 0.0 0.0 0.0 1.5 0.5 0.5
105 1 -2.883900 -8.651700 8.651700 0.0 0.0 0.0 0.0 1.5 0.5 0.5
106 1 -2.883900 -5.767800 -8.651700 0.0 0.0 0.0 0.0 1.5 0.5 0.5
107 1 -2.883900 -5.767800 -5.767800 0.0 0.0 0.0 0.0 1.5 0.5 0.5
108 1 -2.883900 -5.767800 -2.883900 0.0 0.0 0.0 0.0 1.5 0.5 0.5
109 1 -2.883900 -5.767800 0.000000 0.0 0.0 0.0 0.0 1.5 0.5 0.5
110 1 -2.883900 -5.767800 2.883900 0.0 0.0 0.0 0.0 1.5 0.5 0.5
111 1 -2.883900 -5.767800 5.767800 0.0 0.0 0.0 0.0 1.5 0.5 0.5
112 1 -2.883900 -5.767800 8.651700 0.0 0.0 0.0 0.0 1.5 0.5 0.5
113 1 -2.883900 -2.883900 -8.651700 0.0 0.0 0.0 0.0 1.5 0.5 0.5
114 1 -2.883900 -2.883900 -5.767800 0.0 0.0 0.0 0.0 1.5 0.5 0.5
115 1 -2.883900 -2.883900 -2.883900 0.0 0.0 0.0 0.0 1.5 0.5 0.5
116 1 -2.883900 -2.883900 0.000000 0.0 0.0 0.0 0.0 1.5 0.5 0.5
117 1 -2.883900 -2.883900 2.883900 0.0 0.0 0.0 0.0 1.5 0.5 0.5
118 1 -2.883900 -2.883900 5.767800 0.0 0.0 0.0 0.0 1.5 0.5 0.5
119 1 -2.883900 -2.883900 8.651700 0.0 0.0 0.0 0.0 1.5 0.5 0.5
120 1 -2.883900 -0.000000 -8.651700 0.0 0.0 0.0 0.0 1.5 0.5 0.5
121 1 -2.883900 -0.000000 -5.767800 0.0 0.0 0.0 0.0 1.5 0.5 0.5
122 1 -2.883900 -0.000000 -2.883900 0.0 0.0 0.0 0.0 1.5 0.5 0.5
123 1 -2.883900 0.000000 0.000000 0.0 0.0 0.0 0.0 1.5 0.5 0.5
124 1 -2.883900 0.000000 2.883900 0.0 0.0 0.0 0.0 1.5 0.5 0.5
125 1 -2.883900 0.000000 5.767800 0.0 0.0 0.0 0.0 1.5 0.5 0.5
126 1 -2.883900 0.000000 8.651700 0.0 0.0 0.0 0.0 1.5 0.5 0.5
127 1 -2.883900 2.883900 -8.651700 0.0 0.0 0.0 0.0 1.5 0.5 0.5
128 1 -2.883900 2.883900 -5.767800 0.0 0.0 0.0 0.0 1.5 0.5 0.5
129 1 -2.883900 2.883900 -2.883900 0.0 0.0 0.0 0.0 1.5 0.5 0.5
130 1 -2.883900 2.883900 0.000000 0.0 0.0 0.0 0.0 1.5 0.5 0.5
131 1 -2.883900 2.883900 2.883900 0.0 0.0 0.0 0.0 1.5 0.5 0.5
132 1 -2.883900 2.883900 5.767800 0.0 0.0 0.0 0.0 1.5 0.5 0.5
133 1 -2.883900 2.883900 8.651700 0.0 0.0 0.0 0.0 1.5 0.5 0.5
134 1 -2.883900 5.767800 -8.651700 0.0 0.0 0.0 0.0 1.5 0.5 0.5
135 1 -2.883900 5.767800 -5.767800 0.0 0.0 0.0 0.0 1.5 0.5 0.5
136 1 -2.883900 5.767800 -2.883900 0.0 0.0 0.0 0.0 1.5 0.5 0.5
137 1 -2.883900 5.767800 0.000000 0.0 0.0 0.0 0.0 1.5 0.5 0.5
138 1 -2.883900 5.767800 2.883900 0.0 0.0 0.0 0.0 1.5 0.5 0.5
139 1 -2.883900 5.767800 5.767800 0.0 0.0 0.0 0.0 1.5 0.5 0.5
140 1 -2.883900 5.767800 8.651700 0.0 0.0 0.0 0.0 1.5 0.5 0.5
141 1 -2.883900 8.651700 -8.651700 0.0 0.0 0.0 0.0 1.5 0.5 0.5
142 1 -2.883900 8.651700 -5.767800 0.0 0.0 0.0 0.0 1.5 0.5 0.5
143 1 -2.883900 8.651700 -2.883900 0.0 0.0 0.0 0.0 1.5 0.5 0.5
144 1 -2.883900 8.651700 0.000000 0.0 0.0 0.0 0.0 1.5 0.5 0.5
145 1 -2.883900 8.651700 2.883900 0.0 0.0 0.0 0.0 1.5 0.5 0.5
146 1 -2.883900 8.651700 5.767800 0.0 0.0 0.0 0.0 1.5 0.5 0.5
147 1 -2.883900 8.651700 8.651700 0.0 0.0 0.0 0.0 1.5 0.5 0.5
148 1 -0.000000 -8.651700 -8.651700 0.0 0.0 0.0 0.0 1.5 0.5 0.5
149 1 -0.000000 -8.651700 -5.767800 0.0 0.0 0.0 0.0 1.5 0.5 0.5
150 1 -0.000000 -8.651700 -2.883900 0.0 0.0 0.0 0.0 1.5 0.5 0.5
151 1 -0.000000 -8.651700 0.000000 0.0 0.0 0.0 0.0 1.5 0.5 0.5
152 1 -0.000000 -8.651700 2.883900 0.0 0.0 0.0 0.0 1.5 0.5 0.5
153 1 -0.000000 -8.651700 5.767800 0.0 0.0 0.0 0.0 1.5 0.5 0.5
154 1 0.000000 -8.651700 8.651700 0.0 0.0 0.0 0.0 1.5 0.5 0.5
155 1 -0.000000 -5.767800 -8.651700 0.0 0.0 0.0 0.0 1.5 0.5 0.5
156 1 -0.000000 -5.767800 -5.767800 0.0 0.0 0.0 0.0 1.5 0.5 0.5
157 1 -0.000000 -5.767800 -2.883900 0.0 0.0 0.0 0.0 1.5 0.5 0.5
158 1 -0.000000 -5.767800 0.000000 0.0 0.0 0.0 0.0 1.5 0.5 0.5
159 1 -0.000000 -5.767800 2.883900 0.0 0.0 0.0 0.0 1.5 0.5 0.5
160 1 0.000000 -5.767800 5.767800 0.0 0.0 0.0 0.0 1.5 0.5 0.5
161 1 0.000000 -5.767800 8.651700 0.0 0.0 0.0 0.0 1.5 0.5 0.5
162 1 -0.000000 -2.883900 -8.651700 0.0 0.0 0.0 0.0 1.5 0.5 0.5
163 1 -0.000000 -2.883900 -5.767800 0.0 0.0 0.0 0.0 1.5 0.5 0.5
164 1 -0.000000 -2.883900 -2.883900 0.0 0.0 0.0 0.0 1.5 0.5 0.5
165 1 -0.000000 -2.883900 0.000000 0.0 0.0 0.0 0.0 1.5 0.5 0.5
166 1 0.000000 -2.883900 2.883900 0.0 0.0 0.0 0.0 1.5 0.5 0.5
167 1 0.000000 -2.883900 5.767800 0.0 0.0 0.0 0.0 1.5 0.5 0.5
168 1 0.000000 -2.883900 8.651700 0.0 0.0 0.0 0.0 1.5 0.5 0.5
169 1 -0.000000 -0.000000 -8.651700 0.0 0.0 0.0 0.0 1.5 0.5 0.5
170 1 -0.000000 -0.000000 -5.767800 0.0 0.0 0.0 0.0 1.5 0.5 0.5
171 1 -0.000000 -0.000000 -2.883900 0.0 0.0 0.0 0.0 1.5 0.5 0.5
172 1 0.000000 0.000000 0.000000 0.0 0.0 0.0 0.0 1.5 0.5 0.5
173 1 0.000000 0.000000 2.883900 0.0 0.0 0.0 0.0 1.5 0.5 0.5
174 1 0.000000 0.000000 5.767800 0.0 0.0 0.0 0.0 1.5 0.5 0.5
175 1 0.000000 0.000000 8.651700 0.0 0.0 0.0 0.0 1.5 0.5 0.5
176 1 -0.000000 2.883900 -8.651700 0.0 0.0 0.0 0.0 1.5 0.5 0.5
177 1 -0.000000 2.883900 -5.767800 0.0 0.0 0.0 0.0 1.5 0.5 0.5
178 1 0.000000 2.883900 -2.883900 0.0 0.0 0.0 0.0 1.5 0.5 0.5
179 1 0.000000 2.883900 0.000000 0.0 0.0 0.0 0.0 1.5 0.5 0.5
180 1 0.000000 2.883900 2.883900 0.0 0.0 0.0 0.0 1.5 0.5 0.5
181 1 0.000000 2.883900 5.767800 0.0 0.0 0.0 0.0 1.5 0.5 0.5
182 1 0.000000 2.883900 8.651700 0.0 0.0 0.0 0.0 1.5 0.5 0.5
183 1 -0.000000 5.767800 -8.651700 0.0 0.0 0.0 0.0 1.5 0.5 0.5
184 1 0.000000 5.767800 -5.767800 0.0 0.0 0.0 0.0 1.5 0.5 0.5
185 1 0.000000 5.767800 -2.883900 0.0 0.0 0.0 0.0 1.5 0.5 0.5
186 1 0.000000 5.767800 0.000000 0.0 0.0 0.0 0.0 1.5 0.5 0.5
187 1 0.000000 5.767800 2.883900 0.0 0.0 0.0 0.0 1.5 0.5 0.5
188 1 0.000000 5.767800 5.767800 0.0 0.0 0.0 0.0 1.5 0.5 0.5
189 1 0.000000 5.767800 8.651700 0.0 0.0 0.0 0.0 1.5 0.5 0.5
190 1 0.000000 8.651700 -8.651700 0.0 0.0 0.0 0.0 1.5 0.5 0.5
191 1 0.000000 8.651700 -5.767800 0.0 0.0 0.0 0.0 1.5 0.5 0.5
192 1 0.000000 8.651700 -2.883900 0.0 0.0 0.0 0.0 1.5 0.5 0.5
193 1 0.000000 8.651700 0.000000 0.0 0.0 0.0 0.0 1.5 0.5 0.5
194 1 0.000000 8.651700 2.883900 0.0 0.0 0.0 0.0 1.5 0.5 0.5
195 1 0.000000 8.651700 5.767800 0.0 0.0 0.0 0.0 1.5 0.5 0.5
196 1 0.000000 8.651700 8.651700 0.0 0.0 0.0 0.0 1.5 0.5 0.5
197 1 2.883900 -8.651700 -8.651700 0.0 0.0 0.0 0.0 1.5 0.5 0.5
198 1 2.883900 -8.651700 -5.767800 0.0 0.0 0.0 0.0 1.5 0.5 0.5
199 1 2.883900 -8.651700 -2.883900 0.0 0.0 0.0 0.0 1.5 0.5 0.5
200 1 2.883900 -8.651700 0.000000 0.0 0.0 0.0 0.0 1.5 0.5 0.5
201 1 2.883900 -8.651700 2.883900 0.0 0.0 0.0 0.0 1.5 0.5 0.5
202 1 2.883900 -8.651700 5.767800 0.0 0.0 0.0 0.0 1.5 0.5 0.5
203 1 2.883900 -8.651700 8.651700 0.0 0.0 0.0 0.0 1.5 0.5 0.5
204 1 2.883900 -5.767800 -8.651700 0.0 0.0 0.0 0.0 1.5 0.5 0.5
205 1 2.883900 -5.767800 -5.767800 0.0 0.0 0.0 0.0 1.5 0.5 0.5
206 1 2.883900 -5.767800 -2.883900 0.0 0.0 0.0 0.0 1.5 0.5 0.5
207 1 2.883900 -5.767800 0.000000 0.0 0.0 0.0 0.0 1.5 0.5 0.5
208 1 2.883900 -5.767800 2.883900 0.0 0.0 0.0 0.0 1.5 0.5 0.5
209 1 2.883900 -5.767800 5.767800 0.0 0.0 0.0 0.0 1.5 0.5 0.5
210 1 2.883900 -5.767800 8.651700 0.0 0.0 0.0 0.0 1.5 0.5 0.5
211 1 2.883900 -2.883900 -8.651700 0.0 0.0 0.0 0.0 1.5 0.5 0.5
212 1 2.883900 -2.883900 -5.767800 0.0 0.0 0.0 0.0 1.5 0.5 0.5
213 1 2.883900 -2.883900 -2.883900 0.0 0.0 0.0 0.0 1.5 0.5 0.5
214 1 2.883900 -2.883900 0.000000 0.0 0.0 0.0 0.0 1.5 0.5 0.5
215 1 2.883900 -2.883900 2.883900 0.0 0.0 0.0 0.0 1.5 0.5 0.5
216 1 2.883900 -2.883900 5.767800 0.0 0.0 0.0 0.0 1.5 0.5 0.5
217 1 2.883900 -2.883900 8.651700 0.0 0.0 0.0 0.0 1.5 0.5 0.5
218 1 2.883900 -0.000000 -8.651700 0.0 0.0 0.0 0.0 1.5 0.5 0.5
219 1 2.883900 -0.000000 -5.767800 0.0 0.0 0.0 0.0 1.5 0.5 0.5
220 1 2.883900 -0.000000 -2.883900 0.0 0.0 0.0 0.0 1.5 0.5 0.5
221 1 2.883900 0.000000 0.000000 0.0 0.0 0.0 0.0 1.5 0.5 0.5
222 1 2.883900 0.000000 2.883900 0.0 0.0 0.0 0.0 1.5 0.5 0.5
223 1 2.883900 0.000000 5.767800 0.0 0.0 0.0 0.0 1.5 0.5 0.5
224 1 2.883900 0.000000 8.651700 0.0 0.0 0.0 0.0 1.5 0.5 0.5
225 1 2.883900 2.883900 -8.651700 0.0 0.0 0.0 0.0 1.5 0.5 0.5
226 1 2.883900 2.883900 -5.767800 0.0 0.0 0.0 0.0 1.5 0.5 0.5
227 1 2.883900 2.883900 -2.883900 0.0 0.0 0.0 0.0 1.5 0.5 0.5
228 1 2.883900 2.883900 0.000000 0.0 0.0 0.0 0.0 1.5 0.5 0.5
229 1 2.883900 2.883900 2.883900 0.0 0.0 0.0 0.0 1.5 0.5 0.5
230 1 2.883900 2.883900 5.767800 0.0 0.0 0.0 0.0 1.5 0.5 0.5
231 1 2.883900 2.883900 8.651700 0.0 0.0 0.0 0.0 1.5 0.5 0.5
232 1 2.883900 5.767800 -8.651700 0.0 0.0 0.0 0.0 1.5 0.5 0.5
233 1 2.883900 5.767800 -5.767800 0.0 0.0 0.0 0.0 1.5 0.5 0.5
234 1 2.883900 5.767800 -2.883900 0.0 0.0 0.0 0.0 1.5 0.5 0.5
235 1 2.883900 5.767800 0.000000 0.0 0.0 0.0 0.0 1.5 0.5 0.5
236 1 2.883900 5.767800 2.883900 0.0 0.0 0.0 0.0 1.5 0.5 0.5
237 1 2.883900 5.767800 5.767800 0.0 0.0 0.0 0.0 1.5 0.5 0.5
238 1 2.883900 5.767800 8.651700 0.0 0.0 0.0 0.0 1.5 0.5 0.5
239 1 2.883900 8.651700 -8.651700 0.0 0.0 0.0 0.0 1.5 0.5 0.5
240 1 2.883900 8.651700 -5.767800 0.0 0.0 0.0 0.0 1.5 0.5 0.5
241 1 2.883900 8.651700 -2.883900 0.0 0.0 0.0 0.0 1.5 0.5 0.5
242 1 2.883900 8.651700 0.000000 0.0 0.0 0.0 0.0 1.5 0.5 0.5
243 1 2.883900 8.651700 2.883900 0.0 0.0 0.0 0.0 1.5 0.5 0.5
244 1 2.883900 8.651700 5.767800 0.0 0.0 0.0 0.0 1.5 0.5 0.5
245 1 2.883900 8.651700 8.651700 0.0 0.0 0.0 0.0 1.5 0.5 0.5
246 1 5.767800 -8.651700 -8.651700 0.0 0.0 0.0 0.0 1.5 0.5 0.5
247 1 5.767800 -8.651700 -5.767800 0.0 0.0 0.0 0.0 1.5 0.5 0.5
248 1 5.767800 -8.651700 -2.883900 0.0 0.0 0.0 0.0 1.5 0.5 0.5
249 1 5.767800 -8.651700 0.000000 0.0 0.0 0.0 0.0 1.5 0.5 0.5
250 1 5.767800 -8.651700 2.883900 0.0 0.0 0.0 0.0 1.5 0.5 0.5
251 1 5.767800 -8.651700 5.767800 0.0 0.0 0.0 0.0 1.5 0.5 0.5
252 1 5.767800 -8.651700 8.651700 0.0 0.0 0.0 0.0 1.5 0.5 0.5
253 1 5.767800 -5.767800 -8.651700 0.0 0.0 0.0 0.0 1.5 0.5 0.5
254 1 5.767800 -5.767800 -5.767800 0.0 0.0 0.0 0.0 1.5 0.5 0.5
255 1 5.767800 -5.767800 -2.883900 0.0 0.0 0.0 0.0 1.5 0.5 0.5
256 1 5.767800 -5.767800 0.000000 0.0 0.0 0.0 0.0 1.5 0.5 0.5
257 1 5.767800 -5.767800 2.883900 0.0 0.0 0.0 0.0 1.5 0.5 0.5
258 1 5.767800 -5.767800 5.767800 0.0 0.0 0.0 0.0 1.5 0.5 0.5
259 1 5.767800 -5.767800 8.651700 0.0 0.0 0.0 0.0 1.5 0.5 0.5
260 1 5.767800 -2.883900 -8.651700 0.0 0.0 0.0 0.0 1.5 0.5 0.5
261 1 5.767800 -2.883900 -5.767800 0.0 0.0 0.0 0.0 1.5 0.5 0.5
262 1 5.767800 -2.883900 -2.883900 0.0 0.0 0.0 0.0 1.5 0.5 0.5
263 1 5.767800 -2.883900 0.000000 0.0 0.0 0.0 0.0 1.5 0.5 0.5
264 1 5.767800 -2.883900 2.883900 0.0 0.0 0.0 0.0 1.5 0.5 0.5
265 1 5.767800 -2.883900 5.767800 0.0 0.0 0.0 0.0 1.5 0.5 0.5
266 1 5.767800 -2.883900 8.651700 0.0 0.0 0.0 0.0 1.5 0.5 0.5
267 1 5.767800 -0.000000 -8.651700 0.0 0.0 0.0 0.0 1.5 0.5 0.5
268 1 5.767800 -0.000000 -5.767800 0.0 0.0 0.0 0.0 1.5 0.5 0.5
269 1 5.767800 -0.000000 -2.883900 0.0 0.0 0.0 0.0 1.5 0.5 0.5
270 1 5.767800 0.000000 0.000000 0.0 0.0 0.0 0.0 1.5 0.5 0.5
271 1 5.767800 0.000000 2.883900 0.0 0.0 0.0 0.0 1.5 0.5 0.5
272 1 5.767800 0.000000 5.767800 0.0 0.0 0.0 0.0 1.5 0.5 0.5
273 1 5.767800 0.000000 8.651700 0.0 0.0 0.0 0.0 1.5 0.5 0.5
274 1 5.767800 2.883900 -8.651700 0.0 0.0 0.0 0.0 1.5 0.5 0.5
275 1 5.767800 2.883900 -5.767800 0.0 0.0 0.0 0.0 1.5 0.5 0.5
276 1 5.767800 2.883900 -2.883900 0.0 0.0 0.0 0.0 1.5 0.5 0.5
277 1 5.767800 2.883900 0.000000 0.0 0.0 0.0 0.0 1.5 0.5 0.5
278 1 5.767800 2.883900 2.883900 0.0 0.0 0.0 0.0 1.5 0.5 0.5
279 1 5.767800 2.883900 5.767800 0.0 0.0 0.0 0.0 1.5 0.5 0.5
280 1 5.767800 2.883900 8.651700 0.0 0.0 0.0 0.0 1.5 0.5 0.5
281 1 5.767800 5.767800 -8.651700 0.0 0.0 0.0 0.0 1.5 0.5 0.5
282 1 5.767800 5.767800 -5.767800 0.0 0.0 0.0 0.0 1.5 0.5 0.5
283 1 5.767800 5.767800 -2.883900 0.0 0.0 0.0 0.0 1.5 0.5 0.5
284 1 5.767800 5.767800 0.000000 0.0 0.0 0.0 0.0 1.5 0.5 0.5
285 1 5.767800 5.767800 2.883900 0.0 0.0 0.0 0.0 1.5 0.5 0.5
286 1 5.767800 5.767800 5.767800 0.0 0.0 0.0 0.0 1.5 0.5 0.5
287 1 5.767800 5.767800 8.651700 0.0 0.0 0.0 0.0 1.5 0.5 0.5
288 1 5.767800 8.651700 -8.651700 0.0 0.0 0.0 0.0 1.5 0.5 0.5
289 1 5.767800 8.651700 -5.767800 0.0 0.0 0.0 0.0 1.5 0.5 0.5
290 1 5.767800 8.651700 -2.883900 0.0 0.0 0.0 0.0 1.5 0.5 0.5
291 1 5.767800 8.651700 0.000000 0.0 0.0 0.0 0.0 1.5 0.5 0.5
292 1 5.767800 8.651700 2.883900 0.0 0.0 0.0 0.0 1.5 0.5 0.5
293 1 5.767800 8.651700 5.767800 0.0 0.0 0.0 0.0 1.5 0.5 0.5
294 1 5.767800 8.651700 8.651700 0.0 0.0 0.0 0.0 1.5 0.5 0.5
295 1 8.651700 -8.651700 -8.651700 0.0 0.0 0.0 0.0 1.5 0.5 0.5
296 1 8.651700 -8.651700 -5.767800 0.0 0.0 0.0 0.0 1.5 0.5 0.5
297 1 8.651700 -8.651700 -2.883900 0.0 0.0 0.0 0.0 1.5 0.5 0.5
298 1 8.651700 -8.651700 0.000000 0.0 0.0 0.0 0.0 1.5 0.5 0.5
299 1 8.651700 -8.651700 2.883900 0.0 0.0 0.0 0.0 1.5 0.5 0.5
300 1 8.651700 -8.651700 5.767800 0.0 0.0 0.0 0.0 1.5 0.5 0.5
301 1 8.651700 -8.651700 8.651700 0.0 0.0 0.0 0.0 1.5 0.5 0.5
302 1 8.651700 -5.767800 -8.651700 0.0 0.0 0.0 0.0 1.5 0.5 0.5
303 1 8.651700 -5.767800 -5.767800 0.0 0.0 0.0 0.0 1.5 0.5 0.5
304 1 8.651700 -5.767800 -2.883900 0.0 0.0 0.0 0.0 1.5 0.5 0.5
305 1 8.651700 -5.767800 0.000000 0.0 0.0 0.0 0.0 1.5 0.5 0.5
306 1 8.651700 -5.767800 2.883900 0.0 0.0 0.0 0.0 1.5 0.5 0.5
307 1 8.651700 -5.767800 5.767800 0.0 0.0 0.0 0.0 1.5 0.5 0.5
308 1 8.651700 -5.767800 8.651700 0.0 0.0 0.0 0.0 1.5 0.5 0.5
309 1 8.651700 -2.883900 -8.651700 0.0 0.0 0.0 0.0 1.5 0.5 0.5
310 1 8.651700 -2.883900 -5.767800 0.0 0.0 0.0 0.0 1.5 0.5 0.5
311 1 8.651700 -2.883900 -2.883900 0.0 0.0 0.0 0.0 1.5 0.5 0.5
312 1 8.651700 -2.883900 0.000000 0.0 0.0 0.0 0.0 1.5 0.5 0.5
313 1 8.651700 -2.883900 2.883900 0.0 0.0 0.0 0.0 1.5 0.5 0.5
314 1 8.651700 -2.883900 5.767800 0.0 0.0 0.0 0.0 1.5 0.5 0.5
315 1 8.651700 -2.883900 8.651700 0.0 0.0 0.0 0.0 1.5 0.5 0.5
316 1 8.651700 -0.000000 -8.651700 0.0 0.0 0.0 0.0 1.5 0.5 0.5
317 1 8.651700 -0.000000 -5.767800 0.0 0.0 0.0 0.0 1.5 0.5 0.5
318 1 8.651700 -0.000000 -2.883900 0.0 0.0 0.0 0.0 1.5 0.5 0.5
319 1 8.651700 0.000000 0.000000 0.0 0.0 0.0 0.0 1.5 0.5 0.5
320 1 8.651700 0.000000 2.883900 0.0 0.0 0.0 0.0 1.5 0.5 0.5
321 1 8.651700 0.000000 5.767800 0.0 0.0 0.0 0.0 1.5 0.5 0.5
322 1 8.651700 0.000000 8.651700 0.0 0.0 0.0 0.0 1.5 0.5 0.5
323 1 8.651700 2.883900 -8.651700 0.0 0.0 0.0 0.0 1.5 0.5 0.5
324 1 8.651700 2.883900 -5.767800 0.0 0.0 0.0 0.0 1.5 0.5 0.5
325 1 8.651700 2.883900 -2.883900 0.0 0.0 0.0 0.0 1.5 0.5 0.5
326 1 8.651700 2.883900 0.000000 0.0 0.0 0.0 0.0 1.5 0.5 0.5
327 1 8.651700 2.883900 2.883900 0.0 0.0 0.0 0.0 1.5 0.5 0.5
328 1 8.651700 2.883900 5.767800 0.0 0.0 0.0 0.0 1.5 0.5 0.5
329 1 8.651700 2.883900 8.651700 0.0 0.0 0.0 0.0 1.5 0.5 0.5
330 1 8.651700 5.767800 -8.651700 0.0 0.0 0.0 0.0 1.5 0.5 0.5
331 1 8.651700 5.767800 -5.767800 0.0 0.0 0.0 0.0 1.5 0.5 0.5
332 1 8.651700 5.767800 -2.883900 0.0 0.0 0.0 0.0 1.5 0.5 0.5
333 1 8.651700 5.767800 0.000000 0.0 0.0 0.0 0.0 1.5 0.5 0.5
334 1 8.651700 5.767800 2.883900 0.0 0.0 0.0 0.0 1.5 0.5 0.5
335 1 8.651700 5.767800 5.767800 0.0 0.0 0.0 0.0 1.5 0.5 0.5
336 1 8.651700 5.767800 8.651700 0.0 0.0 0.0 0.0 1.5 0.5 0.5
337 1 8.651700 8.651700 -8.651700 0.0 0.0 0.0 0.0 1.5 0.5 0.5
338 1 8.651700 8.651700 -5.767800 0.0 0.0 0.0 0.0 1.5 0.5 0.5
339 1 8.651700 8.651700 -2.883900 0.0 0.0 0.0 0.0 1.5 0.5 0.5
340 1 8.651700 8.651700 0.000000 0.0 0.0 0.0 0.0 1.5 0.5 0.5
341 1 8.651700 8.651700 2.883900 0.0 0.0 0.0 0.0 1.5 0.5 0.5
342 1 8.651700 8.651700 5.767800 0.0 0.0 0.0 0.0 1.5 0.5 0.5
343 1 8.651700 8.651700 8.651700 0.0 0.0 0.0 0.0 1.5 0.5 0.5
344 1 -7.209750 -7.209750 -7.209750 0.0 0.0 0.0 0.0 1.5 0.5 0.5
345 1 -7.209750 -7.209750 -4.325850 0.0 0.0 0.0 0.0 1.5 0.5 0.5
346 1 -7.209750 -7.209750 -1.441950 0.0 0.0 0.0 0.0 1.5 0.5 0.5
347 1 -7.209750 -7.209750 1.441950 0.0 0.0 0.0 0.0 1.5 0.5 0.5
348 1 -7.209750 -7.209750 4.325850 0.0 0.0 0.0 0.0 1.5 0.5 0.5
349 1 -7.209750 -7.209750 7.209750 0.0 0.0 0.0 0.0 1.5 0.5 0.5
350 1 -7.209750 -4.325850 -7.209750 0.0 0.0 0.0 0.0 1.5 0.5 0.5
351 1 -7.209750 -4.325850 -4.325850 0.0 0.0 0.0 0.0 1.5 0.5 0.5
352 1 -7.209750 -4.325850 -1.441950 0.0 0.0 0.0 0.0 1.5 0.5 0.5
353 1 -7.209750 -4.325850 1.441950 0.0 0.0 0.0 0.0 1.5 0.5 0.5
354 1 -7.209750 -4.325850 4.325850 0.0 0.0 0.0 0.0 1.5 0.5 0.5
355 1 -7.209750 -4.325850 7.209750 0.0 0.0 0.0 0.0 1.5 0.5 0.5
356 1 -7.209750 -1.441950 -7.209750 0.0 0.0 0.0 0.0 1.5 0.5 0.5
357 1 -7.209750 -1.441950 -4.325850 0.0 0.0 0.0 0.0 1.5 0.5 0.5
358 1 -7.209750 -1.441950 -1.441950 0.0 0.0 0.0 0.0 1.5 0.5 0.5
359 1 -7.209750 -1.441950 1.441950 0.0 0.0 0.0 0.0 1.5 0.5 0.5
360 1 -7.209750 -1.441950 4.325850 0.0 0.0 0.0 0.0 1.5 0.5 0.5
361 1 -7.209750 -1.441950 7.209750 0.0 0.0 0.0 0.0 1.5 0.5 0.5
362 1 -7.209750 1.441950 -7.209750 0.0 0.0 0.0 0.0 1.5 0.5 0.5
363 1 -7.209750 1.441950 -4.325850 0.0 0.0 0.0 0.0 1.5 0.5 0.5
364 1 -7.209750 1.441950 -1.441950 0.0 0.0 0.0 0.0 1.5 0.5 0.5
365 1 -7.209750 1.441950 1.441950 0.0 0.0 0.0 0.0 1.5 0.5 0.5
366 1 -7.209750 1.441950 4.325850 0.0 0.0 0.0 0.0 1.5 0.5 0.5
367 1 -7.209750 1.441950 7.209750 0.0 0.0 0.0 0.0 1.5 0.5 0.5
368 1 -7.209750 4.325850 -7.209750 0.0 0.0 0.0 0.0 1.5 0.5 0.5
369 1 -7.209750 4.325850 -4.325850 0.0 0.0 0.0 0.0 1.5 0.5 0.5
370 1 -7.209750 4.325850 -1.441950 0.0 0.0 0.0 0.0 1.5 0.5 0.5
371 1 -7.209750 4.325850 1.441950 0.0 0.0 0.0 0.0 1.5 0.5 0.5
372 1 -7.209750 4.325850 4.325850 0.0 0.0 0.0 0.0 1.5 0.5 0.5
373 1 -7.209750 4.325850 7.209750 0.0 0.0 0.0 0.0 1.5 0.5 0.5
374 1 -7.209750 7.209750 -7.209750 0.0 0.0 0.0 0.0 1.5 0.5 0.5
375 1 -7.209750 7.209750 -4.325850 0.0 0.0 0.0 0.0 1.5 0.5 0.5
376 1 -7.209750 7.209750 -1.441950 0.0 0.0 0.0 0.0 1.5 0.5 0.5
377 1 -7.209750 7.209750 1.441950 0.0 0.0 0.0 0.0 1.5 0.5 0.5
378 1 -7.209750 7.209750 4.325850 0.0 0.0 0.0 0.0 1.5 0.5 0.5
379 1 -7.209750 7.209750 7.209750 0.0 0.0 0.0 0.0 1.5 0.5 0.5
380 1 -4.325850 -7.209750 -7.209750 0.0 0.0 0.0 0.0 1.5 0.5 0.5
381 1 -4.325850 -7.209750 -4.325850 0.0 0.0 0.0 0.0 1.5 0.5 0.5
382 1 -4.325850 -7.209750 -1.441950 0.0 0.0 0.0 0.0 1.5 0.5 0.5
383 1 -4.325850 -7.209750 1.441950 0.0 0.0 0.0 0.0 1.5 0.5 0.5
384 1 -4.325850 -7.209750 4.325850 0.0 0.0 0.0 0.0 1.5 0.5 0.5
385 1 -4.325850 -7.209750 7.209750 0.0 0.0 0.0 0.0 1.5 0.5 0.5
386 1 -4.325850 -4.325850 -7.209750 0.0 0.0 0.0 0.0 1.5 0.5 0.5
387 1 -4.325850 -4.325850 -4.325850 0.0 0.0 0.0 0.0 1.5 0.5 0.5
388 1 -4.325850 -4.325850 -1.441950 0.0 0.0 0.0 0.0 1.5 0.5 0.5
389 1 -4.325850 -4.325850 1.441950 0.0 0.0 0.0 0.0 1.5 0.5 0.5
390 1 -4.325850 -4.325850 4.325850 0.0 0.0 0.0 0.0 1.5 0.5 0.5
391 1 -4.325850 -4.325850 7.209750 0.0 0.0 0.0 0.0 1.5 0.5 0.5
392 1 -4.325850 -1.441950 -7.209750 0.0 0.0 0.0 0.0 1.5 0.5 0.5
393 1 -4.325850 -1.441950 -4.325850 0.0 0.0 0.0 0.0 1.5 0.5 0.5
394 1 -4.325850 -1.441950 -1.441950 0.0 0.0 0.0 0.0 1.5 0.5 0.5
395 1 -4.325850 -1.441950 1.441950 0.0 0.0 0.0 0.0 1.5 0.5 0.5
396 1 -4.325850 -1.441950 4.325850 0.0 0.0 0.0 0.0 1.5 0.5 0.5
397 1 -4.325850 -1.441950 7.209750 0.0 0.0 0.0 0.0 1.5 0.5 0.5
398 1 -4.325850 1.441950 -7.209750 0.0 0.0 0.0 0.0 1.5 0.5 0.5
399 1 -4.325850 1.441950 -4.325850 0.0 0.0 0.0 0.0 1.5 0.5 0.5
400 1 -4.325850 1.441950 -1.441950 0.0 0.0 0.0 0.0 1.5 0.5 0.5
401 1 -4.325850 1.441950 1.441950 0.0 0.0 0.0 0.0 1.5 0.5 0.5
402 1 -4.325850 1.441950 4.325850 0.0 0.0 0.0 0.0 1.5 0.5 0.5
403 1 -4.325850 1.441950 7.209750 0.0 0.0 0.0 0.0 1.5 0.5 0.5
404 1 -4.325850 4.325850 -7.209750 0.0 0.0 0.0 0.0 1.5 0.5 0.5
405 1 -4.325850 4.325850 -4.325850 0.0 0.0 0.0 0.0 1.5 0.5 0.5
406 1 -4.325850 4.325850 -1.441950 0.0 0.0 0.0 0.0 1.5 0.5 0.5
407 1 -4.325850 4.325850 1.441950 0.0 0.0 0.0 0.0 1.5 0.5 0.5
408 1 -4.325850 4.325850 4.325850 0.0 0.0 0.0 0.0 1.5 0.5 0.5
409 1 -4.325850 4.325850 7.209750 0.0 0.0 0.0 0.0 1.5 0.5 0.5
410 1 -4.325850 7.209750 -7.209750 0.0 0.0 0.0 0.0 1.5 0.5 0.5
411 1 -4.325850 7.209750 -4.325850 0.0 0.0 0.0 0.0 1.5 0.5 0.5
412 1 -4.325850 7.209750 -1.441950 0.0 0.0 0.0 0.0 1.5 0.5 0.5
413 1 -4.325850 7.209750 1.441950 0.0 0.0 0.0 0.0 1.5 0.5 0.5
414 1 -4.325850 7.209750 4.325850 0.0 0.0 0.0 0.0 1.5 0.5 0.5
415 1 -4.325850 7.209750 7.209750 0.0 0.0 0.0 0.0 1.5 0.5 0.5
416 1 -1.441950 -7.209750 -7.209750 0.0 0.0 0.0 0.0 1.5 0.5 0.5
417 1 -1.441950 -7.209750 -4.325850 0.0 0.0 0.0 0.0 1.5 0.5 0.5
418 1 -1.441950 -7.209750 -1.441950 0.0 0.0 0.0 0.0 1.5 0.5 0.5
419 1 -1.441950 -7.209750 1.441950 0.0 0.0 0.0 0.0 1.5 0.5 0.5
420 1 -1.441950 -7.209750 4.325850 0.0 0.0 0.0 0.0 1.5 0.5 0.5
421 1 -1.441950 -7.209750 7.209750 0.0 0.0 0.0 0.0 1.5 0.5 0.5
422 1 -1.441950 -4.325850 -7.209750 0.0 0.0 0.0 0.0 1.5 0.5 0.5
423 1 -1.441950 -4.325850 -4.325850 0.0 0.0 0.0 0.0 1.5 0.5 0.5
424 1 -1.441950 -4.325850 -1.441950 0.0 0.0 0.0 0.0 1.5 0.5 0.5
425 1 -1.441950 -4.325850 1.441950 0.0 0.0 0.0 0.0 1.5 0.5 0.5
426 1 -1.441950 -4.325850 4.325850 0.0 0.0 0.0 0.0 1.5 0.5 0.5
427 1 -1.441950 -4.325850 7.209750 0.0 0.0 0.0 0.0 1.5 0.5 0.5
428 1 -1.441950 -1.441950 -7.209750 0.0 0.0 0.0 0.0 1.5 0.5 0.5
429 1 -1.441950 -1.441950 -4.325850 0.0 0.0 0.0 0.0 1.5 0.5 0.5
430 1 -1.441950 -1.441950 -1.441950 0.0 0.0 0.0 0.0 1.5 0.5 0.5
431 1 -1.441950 -1.441950 1.441950 0.0 0.0 0.0 0.0 1.5 0.5 0.5
432 1 -1.441950 -1.441950 4.325850 0.0 0.0 0.0 0.0 1.5 0.5 0.5
433 1 -1.441950 -1.441950 7.209750 0.0 0.0 0.0 0.0 1.5 0.5 0.5
434 1 -1.441950 1.441950 -7.209750 0.0 0.0 0.0 0.0 1.5 0.5 0.5
435 1 -1.441950 1.441950 -4.325850 0.0 0.0 0.0 0.0 1.5 0.5 0.5
436 1 -1.441950 1.441950 -1.441950 0.0 0.0 0.0 0.0 1.5 0.5 0.5
437 1 -1.441950 1.441950 1.441950 0.0 0.0 0.0 0.0 1.5 0.5 0.5
438 1 -1.441950 1.441950 4.325850 0.0 0.0 0.0 0.0 1.5 0.5 0.5
439 1 -1.441950 1.441950 7.209750 0.0 0.0 0.0 0.0 1.5 0.5 0.5
440 1 -1.441950 4.325850 -7.209750 0.0 0.0 0.0 0.0 1.5 0.5 0.5
441 1 -1.441950 4.325850 -4.325850 0.0 0.0 0.0 0.0 1.5 0.5 0.5
442 1 -1.441950 4.325850 -1.441950 0.0 0.0 0.0 0.0 1.5 0.5 0.5
443 1 -1.441950 4.325850 1.441950 0.0 0.0 0.0 0.0 1.5 0.5 0.5
444 1 -1.441950 4.325850 4.325850 0.0 0.0 0.0 0.0 1.5 0.5 0.5
445 1 -1.441950 4.325850 7.209750 0.0 0.0 0.0 0.0 1.5 0.5 0.5
446 1 -1.441950 7.209750 -7.209750 0.0 0.0 0.0 0.0 1.5 0.5 0.5
447 1 -1.441950 7.209750 -4.325850 0.0 0.0 0.0 0.0 1.5 0.5 0.5
448 1 -1.441950 7.209750 -1.441950 0.0 0.0 0.0 0.0 1.5 0.5 0.5
449 1 -1.441950 7.209750 1.441950 0.0 0.0 0.0 0.0 1.5 0.5 0.5
450 1 -1.441950 7.209750 4.325850 0.0 0.0 0.0 0.0 1.5 0.5 0.5
451 1 -1.441950 7.209750 7.209750 0.0 0.0 0.0 0.0 1.5 0.5 0.5
452 1 1.441950 -7.209750 -7.209750 0.0 0.0 0.0 0.0 1.5 0.5 0.5
453 1 1.441950 -7.209750 -4.325850 0.0 0.0 0.0 0.0 1.5 0.5 0.5
454 1 1.441950 -7.209750 -1.441950 0.0 0.0 0.0 0.0 1.5 0.5 0.5
455 1 1.441950 -7.209750 1.441950 0.0 0.0 0.0 0.0 1.5 0.5 0.5
456 1 1.441950 -7.209750 4.325850 0.0 0.0 0.0 0.0 1.5 0.5 0.5
457 1 1.441950 -7.209750 7.209750 0.0 0.0 0.0 0.0 1.5 0.5 0.5
458 1 1.441950 -4.325850 -7.209750 0.0 0.0 0.0 0.0 1.5 0.5 0.5
459 1 1.441950 -4.325850 -4.325850 0.0 0.0 0.0 0.0 1.5 0.5 0.5
460 1 1.441950 -4.325850 -1.441950 0.0 0.0 0.0 0.0 1.5 0.5 0.5
461 1 1.441950 -4.325850 1.441950 0.0 0.0 0.0 0.0 1.5 0.5 0.5
462 1 1.441950 -4.325850 4.325850 0.0 0.0 0.0 0.0 1.5 0.5 0.5
463 1 1.441950 -4.325850 7.209750 0.0 0.0 0.0 0.0 1.5 0.5 0.5
464 1 1.441950 -1.441950 -7.209750 0.0 0.0 0.0 0.0 1.5 0.5 0.5
465 1 1.441950 -1.441950 -4.325850 0.0 0.0 0.0 0.0 1.5 0.5 0.5
466 1 1.441950 -1.441950 -1.441950 0.0 0.0 0.0 0.0 1.5 0.5 0.5
467 1 1.441950 -1.441950 1.441950 0.0 0.0 0.0 0.0 1.5 0.5 0.5
468 1 1.441950 -1.441950 4.325850 0.0 0.0 0.0 0.0 1.5 0.5 0.5
469 1 1.441950 -1.441950 7.209750 0.0 0.0 0.0 0.0 1.5 0.5 0.5