ITEM: TIMESTEP
2000000
ITEM: NUMBER OF ATOMS
432
ITEM: BOX BOUNDS pp pp pp
-50.0000000000000000e+00 5.0000000000e+01
-50.0000000000000000e+00 5.0000000000e+01
-50.0000000000000000e+00 5.0000000000e+01
ITEM: ATOMS id type x y z c_orient[1] c_orient[2] c_orient[3] c_orient[4] c_shape[1] c_shape[2] c_shape[3] 
1 -4.963500 -6.686582 -14.501575 0.0 0.0 0.0 0.0 1.5 0.5 0.5
2 -4.963500 -6.686582 -9.228275 0.0 0.0 0.0 0.0 1.5 0.5 0.5
3 -4.963500 -6.686582 -3.954975 0.0 0.0 0.0 0.0 1.5 0.5 0.5
4 -4.963500 -6.686582 1.318325 0.0 0.0 0.0 0.0 1.5 0.5 0.5
5 -4.963500 -6.686582 6.591625 0.0 0.0 0.0 0.0 1.5 0.5 0.5
6 -4.963500 -6.686582 11.864925 0.0 0.0 0.0 0.0 1.5 0.5 0.5
7 -6.618001 -3.820904 -14.501575 0.0 0.0 0.0 0.0 1.5 0.5 0.5
8 -6.618001 -3.820904 -9.228275 0.0 0.0 0.0 0.0 1.5 0.5 0.5
9 -6.618001 -3.820904 -3.954975 0.0 0.0 0.0 0.0 1.5 0.5 0.5
10 -6.618001 -3.820904 1.318325 0.0 0.0 0.0 0.0 1.5 0.5 0.5
11 -6.618001 -3.820904 6.591625 0.0 0.0 0.0 0.0 1.5 0.5 0.5
12 -6.618001 -3.820904 11.864925 0.0 0.0 0.0 0.0 1.5 0.5 0.5
13 -8.272500 -0.955226 -14.501575 0.0 0.0 0.0 0.0 1.5 0.5 0.5
14 -8.272500 -0.955226 -9.228275 0.0 0.0 0.0 0.0 1.5 0.5 0.5
15 -8.272500 -0.955226 -3.954975 0.0 0.0 0.0 0.0 1.5 0.5 0.5
16 -8.272500 -0.955226 1.318325 0.0 0.0 0.0 0.0 1.5 0.5 0.5
17 -8.272500 -0.955226 6.591625 0.0 0.0 0.0 0.0 1.5 0.5 0.5
18 -8.272500 -0.955226 11.864925 0.0 0.0 0.0 0.0 1.5 0.5 0.5
19 -9.927000 1.910452 -14.501575 0.0 0.0 0.0 0.0 1.5 0.5 0.5
20 -9.927000 1.910452 -9.228275 0.0 0.0 0.0 0.0 1.5 0.5 0.5
21 -9.927000 1.910452 -3.954975 0.0 0.0 0.0 0.0 1.5 0.5 0.5
22 -9.927000 1.910452 1.318325 0.0 0.0 0.0 0.0 1.5 0.5 0.5
23 -9.927000 1.910452 6.591625 0.0 0.0 0.0 0.0 1.5 0.5 0.5
24 -9.927000 1.910452 11.864925 0.0 0.0 0.0 0.0 1.5 0.5 0.5
25 -11.581500 4.776130 -14.501575 0.0 0.0 0.0 0.0 1.5 0.5 0.5
26 -11.581500 4.776130 -9.228275 0.0 0.0 0.0 0.0 1.5 0.5 0.5
27 -11.581500 4.776130 -3.954975 0.0 0.0 0.0 0.0 1.5 0.5 0.5
28 -11.581500 4.776130 1.318325 0.0 0.0 0.0 0.0 1.5 0.5 0.5
29 -11.581500 4.776130 6.591625 0.0 0.0 0.0 0.0 1.5 0.5 0.5
30 -11.581500 4.776130 11.864925 0.0 0.0 0.0 0.0 1.5 0.5 0.5
31 -13.236000 7.641809 -14.501575 0.0 0.0 0.0 0.0 1.5 0.5 0.5
32 -13.236000 7.641809 -9.228275 0.0 0.0 0.0 0.0 1.5 0.5 0.5
33 -13.236000 7.641809 -3.954975 0.0 0.0 0.0 0.0 1.5 0.5 0.5
34 -13.236000 7.641809 1.318325 0.0 0.0 0.0 0.0 1.5 0.5 0.5
35 -13.236000 7.641809 6.591625 0.0 0.0 0.0 0.0 1.5 0.5 0.5
36 -13.236000 7.641809 11.864925 0.0 0.0 0.0 0.0 1.5 0.5 0.5
37 -1.654500 -6.686582 -14.501575 0.0 0.0 0.0 0.0 1.5 0.5 0.5
38 -1.654500 -6.686582 -9.228275 0.0 0.0 0.0 0.0 1.5 0.5 0.5
39 -1.654500 -6.686582 -3.954975 0.0 0.0 0.0 0.0 1.5 0.5 0.5
40 -1.654500 -6.686582 1.318325 0.0 0.0 0.0 0.0 1.5 0.5 0.5
41 -1.654500 -6.686582 6.591625 0.0 0.0 0.0 0.0 1.5 0.5 0.5
42 -1.654500 -6.686582 11.864925 0.0 0.0 0.0 0.0 1.5 0.5 0.5
43 -3.309000 -3.820904 -14.501575 0.0 0.0 0.0 0.0 1.5 0.5 0.5
44 -3.309000 -3.820904 -9.228275 0.0 0.0 0.0 0.0 1.5 0.5 0.5
45 -3.309000 -3.820904 -3.954975 0.0 0.0 0.0 0.0 1.5 0.5 0.5
46 -3.309000 -3.820904 1.318325 0.0 0.0 0.0 0.0 1.5 0.5 0.5
47 -3.309000 -3.820904 6.591625 0.0 0.0 0.0 0.0 1.5 0.5 0.5
48 -3.309000 -3.820904 11.864925 0.0 0.0 0.0 0.0 1.5 0.5 0.5
49 -4.963500 -0.955226 -14.501575 0.0 0.0 0.0 0.0 1.5 0.5 0.5
50 -4.963500 -0.955226 -9.228275 0.0 0.0 0.0 0.0 1.5 0.5 0.5
51 -4.963500 -0.955226 -3.954975 0.0 0.0 0.0 0.0 1.5 0.5 0.5
52 -4.963500 -0.955226 1.318325 0.0 0.0 0.0 0.0 1.5 0.5 0.5
53 -4.963500 -0.955226 6.591625 0.0 0.0 0.0 0.0 1.5 0.5 0.5
54 -4.963500 -0.955226 11.864925 0.0 0.0 0.0 0.0 1.5 0.5 0.5
55 -6.618000 1.910452 -14.501575 0.0 0.0 0.0 0.0 1.5 0.5 0.5
56 -6.618000 1.910452 -9.228275 0.0 0.0 0.0 0.0 1.5 0.5 0.5
57 -6.618000 1.910452 -3.954975 0.0 0.0 0.0 0.0 1.5 0.5 0.5
58 -6.618000 1.910452 1.318325 0.0 0.0 0.0 0.0 1.5 0.5 0.5
59 -6.618000 1.910452 6.591625 0.0 0.0 0.0 0.0 1.5 0.5 0.5
60 -6.618000 1.910452 11.864925 0.0 0.0 0.0 0.0 1.5 0.5 0.5
61 -8.272500 4.776130 -14.501575 0.0 0.0 0.0 0.0 1.5 0.5 0.5
62 -8.272500 4.776130 -9.228275 0.0 0.0 0.0 0.0 1.5 0.5 0.5
63 -8.272500 4.776130 -3.954975 0.0 0.0 0.0 0.0 1.5 0.5 0.5
64 -8.272500 4.776130 1.318325 0.0 0.0 0.0 0.0 1.5 0.5 0.5
65 -8.272500 4.776130 6.591625 0.0 0.0 0.0 0.0 1.5 0.5 0.5
66 -8.272500 4.776130 11.864925 0.0 0.0 0.0 0.0 1.5 0.5 0.5
67 -9.927000 7.641809 -14.501575 0.0 0.0 0.0 0.0 1.5 0.5 0.5
68 -9.927000 7.641809 -9.228275 0.0 0.0 0.0 0.0 1.5 0.5 0.5
69 -9.927000 7.641809 -3.954975 0.0 0.0 0.0 0.0 1.5 0.5 0.5
70 -9.927000 7.641809 1.318325 0.0 0.0 0.0 0.0 1.5 0.5 0.5
71 -9.927000 7.641809 6.591625 0.0 0.0 0.0 0.0 1.5 0.5 0.5
72 -9.927000 7.641809 11.864925 0.0 0.0 0.0 0.0 1.5 0.5 0.5
73 1.654500 -6.686582 -14.501575 0.0 0.0 0.0 0.0 1.5 0.5 0.5
74 1.654500 -6.686582 -9.228275 0.0 0.0 0.0 0.0 1.5 0.5 0.5
75 1.654500 -6.686582 -3.954975 0.0 0.0 0.0 0.0 1.5 0.5 0.5
76 1.654500 -6.686582 1.318325 0.0 0.0 0.0 0.0 1.5 0.5 0.5
77 1.654500 -6.686582 6.591625 0.0 0.0 0.0 0.0 1.5 0.5 0.5
78 1.654500 -6.686582 11.864925 0.0 0.0 0.0 0.0 1.5 0.5 0.5
79 -0.000000 -3.820904 -14.501575 0.0 0.0 0.0 0.0 1.5 0.5 0.5
80 -0.000000 -3.820904 -9.228275 0.0 0.0 0.0 0.0 1.5 0.5 0.5
81 -0.000000 -3.820904 -3.954975 0.0 0.0 0.0 0.0 1.5 0.5 0.5
82 -0.000000 -3.820904 1.318325 0.0 0.0 0.0 0.0 1.5 0.5 0.5
83 -0.000000 -3.820904 6.591625 0.0 0.0 0.0 0.0 1.5 0.5 0.5
84 -0.000000 -3.820904 11.864925 0.0 0.0 0.0 0.0 1.5 0.5 0.5
85 -1.654500 -0.955226 -14.501575 0.0 0.0 0.0 0.0 1.5 0.5 0.5
86 -1.654500 -0.955226 -9.228275 0.0 0.0 0.0 0.0 1.5 0.5 0.5
87 -1.654500 -0.955226 -3.954975 0.0 0.0 0.0 0.0 1.5 0.5 0.5
88 -1.654500 -0.955226 1.318325 0.0 0.0 0.0 0.0 1.5 0.5 0.5
89 -1.654500 -0.955226 6.591625 0.0 0.0 0.0 0.0 1.5 0.5 0.5
90 -1.654500 -0.955226 11.864925 0.0 0.0 0.0 0.0 1.5 0.5 0.5
91 -3.309000 1.910452 -14.501575 0.0 0.0 0.0 0.0 1.5 0.5 0.5
92 -3.309000 1.910452 -9.228275 0.0 0.0 0.0 0.0 1.5 0.5 0.5
93 -3.309000 1.910452 -3.954975 0.0 0.0 0.0 0.0 1.5 0.5 0.5
94 -3.309000 1.910452 1.318325 0.0 0.0 0.0 0.0 1.5 0.5 0.5
95 -3.309000 1.910452 6.591625 0.0 0.0 0.0 0.0 1.5 0.5 0.5
96 -3.309000 1.910452 11.864925 0.0 0.0 0.0 0.0 1.5 0.5 0.5
97 -4.963500 4.776130 -14.501575 0.0 0.0 0.0 0.0 1.5 0.5 0.5
98 -4.963500 4.776130 -9.228275 0.0 0.0 0.0 0.0 1.5 0.5 0.5
99 -4.963500 4.776130 -3.954975 0.0 0.0 0.0 0.0 1.5 0.5 0.5
100 -4.963500 4.776130 1.318325 0.0 0.0 0.0 0.0 1.5 0.5 0.5
101 -4.963500 4.776130 6.591625 0.0 0.0 0.0 0.0 1.5 0.5 0.5
102 -4.963500 4.776130 11.864925 0.0 0.0 0.0 0.0 1.5 0.5 0.5
103 -6.618000 7.641809 -14.501575 0.0 0.0 0.0 0.0 1.5 0.5 0.5
104 -6.618000 7.641809 -9.228275 0.0 0.0 0.0 0.0 1.5 0.5 0.5
105 -6.618000 7.641809 -3.954975 0.0 0.0 0.0 0.0 1.5 0.5 0.5
106 -6.618000 7.641809 1.318325 0.0 0.0 0.0 0.0 1.5 0.5 0.5
107 -6.618000 7.641809 6.591625 0.0 0.0 0.0 0.0 1.5 0.5 0.5
108 -6.618000 7.641809 11.864925 0.0 0.0 0.0 0.0 1.5 0.5 0.5
109 4.963500 -6.686582 -14.501575 0.0 0.0 0.0 0.0 1.5 0.5 0.5
110 4.963500 -6.686582 -9.228275 0.0 0.0 0.0 0.0 1.5 0.5 0.5
111 4.963500 -6.686582 -3.954975 0.0 0.0 0.0 0.0 1.5 0.5 0.5
112 4.963500 -6.686582 1.318325 0.0 0.0 0.0 0.0 1.5 0.5 0.5
113 4.963500 -6.686582 6.591625 0.0 0.0 0.0 0.0 1.5 0.5 0.5
114 4.963500 -6.686582 11.864925 0.0 0.0 0.0 0.0 1.5 0.5 0.5
115 3.309000 -3.820904 -14.501575 0.0 0.0 0.0 0.0 1.5 0.5 0.5
116 3.309000 -3.820904 -9.228275 0.0 0.0 0.0 0.0 1.5 0.5 0.5
117 3.309000 -3.820904 -3.954975 0.0 0.0 0.0 0.0 1.5 0.5 0.5
118 3.309000 -3.820904 1.318325 0.0 0.0 0.0 0.0 1.5 0.5 0.5
119 3.309000 -3.820904 6.591625 0.0 0.0 0.0 0.0 1.5 0.5 0.5
120 3.309000 -3.820904 11.864925 0.0 0.0 0.0 0.0 1.5 0.5 0.5
121 1.654500 -0.955226 -14.501575 0.0 0.0 0.0 0.0 1.5 0.5 0.5
122 1.654500 -0.955226 -9.228275 0.0 0.0 0.0 0.0 1.5 0.5 0.5
123 1.654500 -0.955226 -3.954975 0.0 0.0 0.0 0.0 1.5 0.5 0.5
124 1.654500 -0.955226 1.318325 0.0 0.0 0.0 0.0 1.5 0.5 0.5
125 1.654500 -0.955226 6.591625 0.0 0.0 0.0 0.0 1.5 0.5 0.5
126 1.654500 -0.955226 11.864925 0.0 0.0 0.0 0.0 1.5 0.5 0.5
127 -0.000000 1.910452 -14.501575 0.0 0.0 0.0 0.0 1.5 0.5 0.5
128 -0.000000 1.910452 -9.228275 0.0 0.0 0.0 0.0 1.5 0.5 0.5
129 0.000000 1.910452 -3.954975 0.0 0.0 0.0 0.0 1.5 0.5 0.5
130 0.000000 1.910452 1.318325 0.0 0.0 0.0 0.0 1.5 0.5 0.5
131 0.000000 1.910452 6.591625 0.0 0.0 0.0 0.0 1.5 0.5 0.5
132 0.000000 1.910452 11.864925 0.0 0.0 0.0 0.0 1.5 0.5 0.5
133 -1.654500 4.776130 -14.501575 0.0 0.0 0.0 0.0 1.5 0.5 0.5
134 -1.654500 4.776130 -9.228275 0.0 0.0 0.0 0.0 1.5 0.5 0.5
135 -1.654500 4.776130 -3.954975 0.0 0.0 0.0 0.0 1.5 0.5 0.5
136 -1.654500 4.776130 1.318325 0.0 0.0 0.0 0.0 1.5 0.5 0.5
137 -1.654500 4.776130 6.591625 0.0 0.0 0.0 0.0 1.5 0.5 0.5
138 -1.654500 4.776130 11.864925 0.0 0.0 0.0 0.0 1.5 0.5 0.5
139 -3.309000 7.641809 -14.501575 0.0 0.0 0.0 0.0 1.5 0.5 0.5
140 -3.309000 7.641809 -9.228275 0.0 0.0 0.0 0.0 1.5 0.5 0.5
141 -3.309000 7.641809 -3.954975 0.0 0.0 0.0 0.0 1.5 0.5 0.5
142 -3.309000 7.641809 1.318325 0.0 0.0 0.0 0.0 1.5 0.5 0.5
143 -3.309000 7.641809 6.591625 0.0 0.0 0.0 0.0 1.5 0.5 0.5
144 -3.309000 7.641809 11.864925 0.0 0.0 0.0 0.0 1.5 0.5 0.5
145 8.272500 -6.686582 -14.501575 0.0 0.0 0.0 0.0 1.5 0.5 0.5
146 8.272500 -6.686582 -9.228275 0.0 0.0 0.0 0.0 1.5 0.5 0.5
147 8.272500 -6.686582 -3.954975 0.0 0.0 0.0 0.0 1.5 0.5 0.5
148 8.272500 -6.686582 1.318325 0.0 0.0 0.0 0.0 1.5 0.5 0.5
149 8.272500 -6.686582 6.591625 0.0 0.0 0.0 0.0 1.5 0.5 0.5
150 8.272500 -6.686582 11.864925 0.0 0.0 0.0 0.0 1.5 0.5 0.5
151 6.618000 -3.820904 -14.501575 0.0 0.0 0.0 0.0 1.5 0.5 0.5
152 6.618000 -3.820904 -9.228275 0.0 0.0 0.0 0.0 1.5 0.5 0.5
153 6.618000 -3.820904 -3.954975 0.0 0.0 0.0 0.0 1.5 0.5 0.5
154 6.618000 -3.820904 1.318325 0.0 0.0 0.0 0.0 1.5 0.5 0.5
155 6.618000 -3.820904 6.591625 0.0 0.0 0.0 0.0 1.5 0.5 0.5
156 6.618000 -3.820904 11.864925 0.0 0.0 0.0 0.0 1.5 0.5 0.5
157 4.963500 -0.955226 -14.501575 0.0 0.0 0.0 0.0 1.5 0.5 0.5
158 4.963500 -0.955226 -9.228275 0.0 0.0 0.0 0.0 1.5 0.5 0.5
159 4.963500 -0.955226 -3.954975 0.0 0.0 0.0 0.0 1.5 0.5 0.5
160 4.963500 -0.955226 1.318325 0.0 0.0 0.0 0.0 1.5 0.5 0.5
161 4.963500 -0.955226 6.591625 0.0 0.0 0.0 0.0 1.5 0.5 0.5
162 4.963500 -0.955226 11.864925 0.0 0.0 0.0 0.0 1.5 0.5 0.5
163 3.309000 1.910452 -14.501575 0.0 0.0 0.0 0.0 1.5 0.5 0.5
164 3.309000 1.910452 -9.228275 0.0 0.0 0.0 0.0 1.5 0.5 0.5
165 3.309000 1.910452 -3.954975 0.0 0.0 0.0 0.0 1.5 0.5 0.5
166 3.309000 1.910452 1.318325 0.0 0.0 0.0 0.0 1.5 0.5 0.5
167 3.309000 1.910452 6.591625 0.0 0.0 0.0 0.0 1.5 0.5 0.5
168 3.309000 1.910452 11.864925 0.0 0.0 0.0 0.0 1.5 0.5 0.5
169 1.654500 4.776130 -14.501575 0.0 0.0 0.0 0.0 1.5 0.5 0.5
170 1.654500 4.776130 -9.228275 0.0 0.0 0.0 0.0 1.5 0.5 0.5
171 1.654500 4.776130 -3.954975 0.0 0.0 0.0 0.0 1.5 0.5 0.5
172 1.654500 4.776130 1.318325 0.0 0.0 0.0 0.0 1.5 0.5 0.5
173 1.654500 4.776130 6.591625 0.0 0.0 0.0 0.0 1.5 0.5 0.5
174 1.654500 4.776130 11.864925 0.0 0.0 0.0 0.0 1.5 0.5 0.5
175 0.000000 7.641809 -14.501575 0.0 0.0 0.0 0.0 1.5 0.5 0.5
176 0.000000 7.641809 -9.228275 0.0 0.0 0.0 0.0 1.5 0.5 0.5
177 0.000000 7.641809 -3.954975 0.0 0.0 0.0 0.0 1.5 0.5 0.5
178 0.000000 7.641809 1.318325 0.0 0.0 0.0 0.0 1.5 0.5 0.5
179 0.000000 7.641809 6.591625 0.0 0.0 0.0 0.0 1.5 0.5 0.5
180 0.000000 7.641809 11.864925 0.0 0.0 0.0 0.0 1.5 0.5 0.5
181 11.581500 -6.686582 -14.501575 0.0 0.0 0.0 0.0 1.5 0.5 0.5
182 11.581500 -6.686582 -9.228275 0.0 0.0 0.0 0.0 1.5 0.5 0.5
183 11.581500 -6.686582 -3.954975 0.0 0.0 0.0 0.0 1.5 0.5 0.5
184 11.581500 -6.686582 1.318325 0.0 0.0 0.0 0.0 1.5 0.5 0.5
185 11.581500 -6.686582 6.591625 0.0 0.0 0.0 0.0 1.5 0.5 0.5
186 11.581500 -6.686582 11.864925 0.0 0.0 0.0 0.0 1.5 0.5 0.5
187 9.927000 -3.820904 -14.501575 0.0 0.0 0.0 0.0 1.5 0.5 0.5
188 9.927000 -3.820904 -9.228275 0.0 0.0 0.0 0.0 1.5 0.5 0.5
189 9.927000 -3.820904 -3.954975 0.0 0.0 0.0 0.0 1.5 0.5 0.5
190 9.927000 -3.820904 1.318325 0.0 0.0 0.0 0.0 1.5 0.5 0.5
191 9.927000 -3.820904 6.591625 0.0 0.0 0.0 0.0 1.5 0.5 0.5
192 9.927000 -3.820904 11.864925 0.0 0.0 0.0 0.0 1.5 0.5 0.5
193 8.272500 -0.955226 -14.501575 0.0 0.0 0.0 0.0 1.5 0.5 0.5
194 8.272500 -0.955226 -9.228275 0.0 0.0 0.0 0.0 1.5 0.5 0.5
195 8.272500 -0.955226 -3.954975 0.0 0.0 0.0 0.0 1.5 0.5 0.5
196 8.272500 -0.955226 1.318325 0.0 0.0 0.0 0.0 1.5 0.5 0.5
197 8.272500 -0.955226 6.591625 0.0 0.0 0.0 0.0 1.5 0.5 0.5
198 8.272500 -0.955226 11.864925 0.0 0.0 0.0 0.0 1.5 0.5 0.5
199 6.618000 1.910452 -14.501575 0.0 0.0 0.0 0.0 1.5 0.5 0.5
200 6.618000 1.910452 -9.228275 0.0 0.0 0.0 0.0 1.5 0.5 0.5
201 6.618000 1.910452 -3.954975 0.0 0.0 0.0 0.0 1.5 0.5 0.5
202 6.618000 1.910452 1.318325 0.0 0.0 0.0 0.0 1.5 0.5 0.5
203 6.618000 1.910452 6.591625 0.0 0.0 0.0 0.0 1.5 0.5 0.5
204 6.618000 1.910452 11.864925 0.0 0.0 0.0 0.0 1.5 0.5 0.5
205 4.963500 4.776130 -14.501575 0.0 0.0 0.0 0.0 1.5 0.5 0.5
206 4.963500 4.776130 -9.228275 0.0 0.0 0.0 0.0 1.5 0.5 0.5
207 4.963500 4.776130 -3.954975 0.0 0.0 0.0 0.0 1.5 0.5 0.5
208 4.963500 4.776130 1.318325 0.0 0.0 0.0 0.0 1.5 0.5 0.5
209 4.963500 4.776130 6.591625 0.0 0.0 0.0 0.0 1.5 0.5 0.5
210 4.963500 4.776130 11.864925 0.0 0.0 0.0 0.0 1.5 0.5 0.5
211 3.309000 7.641809 -14.501575 0.0 0.0 0.0 0.0 1.5 0.5 0.5
212 3.309000 7.641809 -9.228275 0.0 0.0 0.0 0.0 1.5 0.5 0.5
213 3.309000 7.641809 -3.954975 0.0 0.0 0.0 0.0 1.5 0.5 0.5
214 3.309000 7.641809 1.318325 0.0 0.0 0.0 0.0 1.5 0.5 0.5
215 3.309000 7.641809 6.591625 0.0 0.0 0.0 0.0 1.5 0.5 0.5
216 3.309000 7.641809 11.864925 0.0 0.0 0.0 0.0 1.5 0.5 0.5
217 -3.309000 -7.641809 -11.864925 0.0 0.0 0.0 0.0 1.5 0.5 0.5
218 -3.309000 -7.641809 -6.591625 0.0 0.0 0.0 0.0 1.5 0.5 0.5
219 -3.309000 -7.641809 -1.318325 0.0 0.0 0.0 0.0 1.5 0.5 0.5
220 -3.309000 -7.641809 3.954975 0.0 0.0 0.0 0.0 1.5 0.5 0.5
221 -3.309000 -7.641809 9.228275 0.0 0.0 0.0 0.0 1.5 0.5 0.5
222 -3.309000 -7.641809 14.501575 0.0 0.0 0.0 0.0 1.5 0.5 0.5
223 -4.963500 -4.776130 -11.864925 0.0 0.0 0.0 0.0 1.5 0.5 0.5
224 -4.963500 -4.776130 -6.591625 0.0 0.0 0.0 0.0 1.5 0.5 0.5
225 -4.963500 -4.776130 -1.318325 0.0 0.0 0.0 0.0 1.5 0.5 0.5
226 -4.963500 -4.776130 3.954975 0.0 0.0 0.0 0.0 1.5 0.5 0.5
227 -4.963500 -4.776130 9.228275 0.0 0.0 0.0 0.0 1.5 0.5 0.5
228 -4.963500 -4.776130 14.501575 0.0 0.0 0.0 0.0 1.5 0.5 0.5
229 -6.618001 -1.910452 -11.864925 0.0 0.0 0.0 0.0 1.5 0.5 0.5
230 -6.618001 -1.910452 -6.591625 0.0 0.0 0.0 0.0 1.5 0.5 0.5
231 -6.618001 -1.910452 -1.318325 0.0 0.0 0.0 0.0 1.5 0.5 0.5
232 -6.618001 -1.910452 3.954975 0.0 0.0 0.0 0.0 1.5 0.5 0.5
233 -6.618001 -1.910452 9.228275 0.0 0.0 0.0 0.0 1.5 0.5 0.5
234 -6.618001 -1.910452 14.501575 0.0 0.0 0.0 0.0 1.5 0.5 0.5
235 -8.272501 0.955226 -11.864925 0.0 0.0 0.0 0.0 1.5 0.5 0.5
236 -8.272501 0.955226 -6.591625 0.0 0.0 0.0 0.0 1.5 0.5 0.5
237 -8.272501 0.955226 -1.318325 0.0 0.0 0.0 0.0 1.5 0.5 0.5
238 -8.272501 0.955226 3.954975 0.0 0.0 0.0 0.0 1.5 0.5 0.5
239 -8.272501 0.955226 9.228275 0.0 0.0 0.0 0.0 1.5 0.5 0.5
240 -8.272501 0.955226 14.501575 0.0 0.0 0.0 0.0 1.5 0.5 0.5
241 -9.927000 3.820904 -11.864925 0.0 0.0 0.0 0.0 1.5 0.5 0.5
242 -9.927000 3.820904 -6.591625 0.0 0.0 0.0 0.0 1.5 0.5 0.5
243 -9.927000 3.820904 -1.318325 0.0 0.0 0.0 0.0 1.5 0.5 0.5
244 -9.927000 3.820904 3.954975 0.0 0.0 0.0 0.0 1.5 0.5 0.5
245 -9.927000 3.820904 9.228275 0.0 0.0 0.0 0.0 1.5 0.5 0.5
246 -9.927000 3.820904 14.501575 0.0 0.0 0.0 0.0 1.5 0.5 0.5
247 -11.581500 6.686582 -11.864925 0.0 0.0 0.0 0.0 1.5 0.5 0.5
248 -11.581500 6.686582 -6.591625 0.0 0.0 0.0 0.0 1.5 0.5 0.5
249 -11.581500 6.686582 -1.318325 0.0 0.0 0.0 0.0 1.5 0.5 0.5
250 -11.581500 6.686582 3.954975 0.0 0.0 0.0 0.0 1.5 0.5 0.5
251 -11.581500 6.686582 9.228275 0.0 0.0 0.0 0.0 1.5 0.5 0.5
252 -11.581500 6.686582 14.501575 0.0 0.0 0.0 0.0 1.5 0.5 0.5
253 -0.000000 -7.641809 -11.864925 0.0 0.0 0.0 0.0 1.5 0.5 0.5
254 -0.000000 -7.641809 -6.591625 0.0 0.0 0.0 0.0 1.5 0.5 0.5
255 -0.000000 -7.641809 -1.318325 0.0 0.0 0.0 0.0 1.5 0.5 0.5
256 -0.000000 -7.641809 3.954975 0.0 0.0 0.0 0.0 1.5 0.5 0.5
257 -0.000000 -7.641809 9.228275 0.0 0.0 0.0 0.0 1.5 0.5 0.5
258 -0.000000 -7.641809 14.501575 0.0 0.0 0.0 0.0 1.5 0.5 0.5
259 -1.654500 -4.776130 -11.864925 0.0 0.0 0.0 0.0 1.5 0.5 0.5
260 -1.654500 -4.776130 -6.591625 0.0 0.0 0.0 0.0 1.5 0.5 0.5
261 -1.654500 -4.776130 -1.318325 0.0 0.0 0.0 0.0 1.5 0.5 0.5
262 -1.654500 -4.776130 3.954975 0.0 0.0 0.0 0.0 1.5 0.5 0.5
263 -1.654500 -4.776130 9.228275 0.0 0.0 0.0 0.0 1.5 0.5 0.5
264 -1.654500 -4.776130 14.501575 0.0 0.0 0.0 0.0 1.5 0.5 0.5
265 -3.309000 -1.910452 -11.864925 0.0 0.0 0.0 0.0 1.5 0.5 0.5
266 -3.309000 -1.910452 -6.591625 0.0 0.0 0.0 0.0 1.5 0.5 0.5
267 -3.309000 -1.910452 -1.318325 0.0 0.0 0.0 0.0 1.5 0.5 0.5
268 -3.309000 -1.910452 3.954975 0.0 0.0 0.0 0.0 1.5 0.5 0.5
269 -3.309000 -1.910452 9.228275 0.0 0.0 0.0 0.0 1.5 0.5 0.5
270 -3.309000 -1.910452 14.501575 0.0 0.0 0.0 0.0 1.5 0.5 0.5
271 -4.963500 0.955226 -11.864925 0.0 0.0 0.0 0.0 1.5 0.5 0.5
272 -4.963500 0.955226 -6.591625 0.0 0.0 0.0 0.0 1.5 0.5 0.5
273 -4.963500 0.955226 -1.318325 0.0 0.0 0.0 0.0 1.5 0.5 0.5
274 -4.963500 0.955226 3.954975 0.0 0.0 0.0 0.0 1.5 0.5 0.5
275 -4.963500 0.955226 9.228275 0.0 0.0 0.0 0.0 1.5 0.5 0.5
276 -4.963500 0.955226 14.501575 0.0 0.0 0.0 0.0 1.5 0.5 0.5
277 -6.618000 3.820904 -11.864925 0.0 0.0 0.0 0.0 1.5 0.5 0.5
278 -6.618000 3.820904 -6.591625 0.0 0.0 0.0 0.0 1.5 0.5 0.5
279 -6.618000 3.820904 -1.318325 0.0 0.0 0.0 0.0 1.5 0.5 0.5
280 -6.618000 3.820904 3.954975 0.0 0.0 0.0 0.0 1.5 0.5 0.5
281 -6.618000 3.820904 9.228275 0.0 0.0 0.0 0.0 1.5 0.5 0.5
282 -6.618000 3.820904 14.501575 0.0 0.0 0.0 0.0 1.5 0.5 0.5
283 -8.272500 6.686582 -11.864925 0.0 0.0 0.0 0.0 1.5 0.5 0.5
284 -8.272500 6.686582 -6.591625 0.0 0.0 0.0 0.0 1.5 0.5 0.5
285 -8.272500 6.686582 -1.318325 0.0 0.0 0.0 0.0 1.5 0.5 0.5
286 -8.272500 6.686582 3.954975 0.0 0.0 0.0 0.0 1.5 0.5 0.5
287 -8.272500 6.686582 9.228275 0.0 0.0 0.0 0.0 1.5 0.5 0.5
288 -8.272500 6.686582 14.501575 0.0 0.0 0.0 0.0 1.5 0.5 0.5
289 3.309000 -7.641809 -11.864925 0.0 0.0 0.0 0.0 1.5 0.5 0.5
290 3.309000 -7.641809 -6.591625 0.0 0.0 0.0 0.0 1.5 0.5 0.5
291 3.309000 -7.641809 -1.318325 0.0 0.0 0.0 0.0 1.5 0.5 0.5
292 3.309000 -7.641809 3.954975 0.0 0.0 0.0 0.0 1.5 0.5 0.5
293 3.309000 -7.641809 9.228275 0.0 0.0 0.0 0.0 1.5 0.5 0.5
294 3.309000 -7.641809 14.501575 0.0 0.0 0.0 0.0 1.5 0.5 0.5
295 1.654500 -4.776130 -11.864925 0.0 0.0 0.0 0.0 1.5 0.5 0.5
296 1.654500 -4.776130 -6.591625 0.0 0.0 0.0 0.0 1.5 0.5 0.5
297 1.654500 -4.776130 -1.318325 0.0 0.0 0.0 0.0 1.5 0.5 0.5
298 1.654500 -4.776130 3.954975 0.0 0.0 0.0 0.0 1.5 0.5 0.5
299 1.654500 -4.776130 9.228275 0.0 0.0 0.0 0.0 1.5 0.5 0.5
300 1.654500 -4.776130 14.501575 0.0 0.0 0.0 0.0 1.5 0.5 0.5
301 -0.000000 -1.910452 -11.864925 0.0 0.0 0.0 0.0 1.5 0.5 0.5
302 -0.000000 -1.910452 -6.591625 0.0 0.0 0.0 0.0 1.5 0.5 0.5
303 -0.000000 -1.910452 -1.318325 0.0 0.0 0.0 0.0 1.5 0.5 0.5
304 -0.000000 -1.910452 3.954975 0.0 0.0 0.0 0.0 1.5 0.5 0.5
305 -0.000000 -1.910452 9.228275 0.0 0.0 0.0 0.0 1.5 0.5 0.5
306 -0.000000 -1.910452 14.501575 0.0 0.0 0.0 0.0 1.5 0.5 0.5
307 -1.654500 0.955226 -11.864925 0.0 0.0 0.0 0.0 1.5 0.5 0.5
308 -1.654500 0.955226 -6.591625 0.0 0.0 0.0 0.0 1.5 0.5 0.5
309 -1.654500 0.955226 -1.318325 0.0 0.0 0.0 0.0 1.5 0.5 0.5
310 -1.654500 0.955226 3.954975 0.0 0.0 0.0 0.0 1.5 0.5 0.5
311 -1.654500 0.955226 9.228275 0.0 0.0 0.0 0.0 1.5 0.5 0.5
312 -1.654500 0.955226 14.501575 0.0 0.0 0.0 0.0 1.5 0.5 0.5
313 -3.309000 3.820904 -11.864925 0.0 0.0 0.0 0.0 1.5 0.5 0.5
314 -3.309000 3.820904 -6.591625 0.0 0.0 0.0 0.0 1.5 0.5 0.5
315 -3.309000 3.820904 -1.318325 0.0 0.0 0.0 0.0 1.5 0.5 0.5
316 -3.309000 3.820904 3.954975 0.0 0.0 0.0 0.0 1.5 0.5 0.5
317 -3.309000 3.820904 9.228275 0.0 0.0 0.0 0.0 1.5 0.5 0.5
318 -3.309000 3.820904 14.501575 0.0 0.0 0.0 0.0 1.5 0.5 0.5
319 -4.963500 6.686582 -11.864925 0.0 0.0 0.0 0.0 1.5 0.5 0.5
320 -4.963500 6.686582 -6.591625 0.0 0.0 0.0 0.0 1.5 0.5 0.5
321 -4.963500 6.686582 -1.318325 0.0 0.0 0.0 0.0 1.5 0.5 0.5
322 -4.963500 6.686582 3.954975 0.0 0.0 0.0 0.0 1.5 0.5 0.5
323 -4.963500 6.686582 9.228275 0.0 0.0 0.0 0.0 1.5 0.5 0.5
324 -4.963500 6.686582 14.501575 0.0 0.0 0.0 0.0 1.5 0.5 0.5
325 6.618000 -7.641809 -11.864925 0.0 0.0 0.0 0.0 1.5 0.5 0.5
326 6.618000 -7.641809 -6.591625 0.0 0.0 0.0 0.0 1.5 0.5 0.5
327 6.618000 -7.641809 -1.318325 0.0 0.0 0.0 0.0 1.5 0.5 0.5
328 6.618000 -7.641809 3.954975 0.0 0.0 0.0 0.0 1.5 0.5 0.5
329 6.618000 -7.641809 9.228275 0.0 0.0 0.0 0.0 1.5 0.5 0.5
330 6.618000 -7.641809 14.501575 0.0 0.0 0.0 0.0 1.5 0.5 0.5
331 4.963500 -4.776130 -11.864925 0.0 0.0 0.0 0.0 1.5 0.5 0.5
332 4.963500 -4.776130 -6.591625 0.0 0.0 0.0 0.0 1.5 0.5 0.5
333 4.963500 -4.776130 -1.318325 0.0 0.0 0.0 0.0 1.5 0.5 0.5
334 4.963500 -4.776130 3.954975 0.0 0.0 0.0 0.0 1.5 0.5 0.5
335 4.963500 -4.776130 9.228275 0.0 0.0 0.0 0.0 1.5 0.5 0.5
336 4.963500 -4.776130 14.501575 0.0 0.0 0.0 0.0 1.5 0.5 0.5
337 3.309000 -1.910452 -11.864925 0.0 0.0 0.0 0.0 1.5 0.5 0.5
338 3.309000 -1.910452 -6.591625 0.0 0.0 0.0 0.0 1.5 0.5 0.5
339 3.309000 -1.910452 -1.318325 0.0 0.0 0.0 0.0 1.5 0.5 0.5
340 3.309000 -1.910452 3.954975 0.0 0.0 0.0 0.0 1.5 0.5 0.5
341 3.309000 -1.910452 9.228275 0.0 0.0 0.0 0.0 1.5 0.5 0.5
342 3.309000 -1.910452 14.501575 0.0 0.0 0.0 0.0 1.5 0.5 0.5
343 1.654500 0.955226 -11.864925 0.0 0.0 0.0 0.0 1.5 0.5 0.5
344 1.654500 0.955226 -6.591625 0.0 0.0 0.0 0.0 1.5 0.5 0.5
345 1.654500 0.955226 -1.318325 0.0 0.0 0.0 0.0 1.5 0.5 0.5
346 1.654500 0.955226 3.954975 0.0 0.0 0.0 0.0 1.5 0.5 0.5
347 1.654500 0.955226 9.228275 0.0 0.0 0.0 0.0 1.5 0.5 0.5
348 1.654500 0.955226 14.501575 0.0 0.0 0.0 0.0 1.5 0.5 0.5
349 0.000000 3.820904 -11.864925 0.0 0.0 0.0 0.0 1.5 0.5 0.5
350 0.000000 3.820904 -6.591625 0.0 0.0 0.0 0.0 1.5 0.5 0.5
351 0.000000 3.820904 -1.318325 0.0 0.0 0.0 0.0 1.5 0.5 0.5
352 0.000000 3.820904 3.954975 0.0 0.0 0.0 0.0 1.5 0.5 0.5
353 0.000000 3.820904 9.228275 0.0 0.0 0.0 0.0 1.5 0.5 0.5
354 0.000000 3.820904 14.501575 0.0 0.0 0.0 0.0 1.5 0.5 0.5
355 -1.654500 6.686582 -11.864925 0.0 0.0 0.0 0.0 1.5 0.5 0.5
356 -1.654500 6.686582 -6.591625 0.0 0.0 0.0 0.0 1.5 0.5 0.5
357 -1.654500 6.686582 -1.318325 0.0 0.0 0.0 0.0 1.5 0.5 0.5
358 -1.654500 6.686582 3.954975 0.0 0.0 0.0 0.0 1.5 0.5 0.5
359 -1.654500 6.686582 9.228275 0.0 0.0 0.0 0.0 1.5 0.5 0.5
360 -1.654500 6.686582 14.501575 0.0 0.0 0.0 0.0 1.5 0.5 0.5
361 9.927000 -7.641809 -11.864925 0.0 0.0 0.0 0.0 1.5 0.5 0.5
362 9.927000 -7.641809 -6.591625 0.0 0.0 0.0 0.0 1.5 0.5 0.5
363 9.927000 -7.641809 -1.318325 0.0 0.0 0.0 0.0 1.5 0.5 0.5
364 9.927000 -7.641809 3.954975 0.0 0.0 0.0 0.0 1.5 0.5 0.5
365 9.927000 -7.641809 9.228275 0.0 0.0 0.0 0.0 1.5 0.5 0.5
366 9.927000 -7.641809 14.501575 0.0 0.0 0.0 0.0 1.5 0.5 0.5
367 8.272500 -4.776130 -11.864925 0.0 0.0 0.0 0.0 1.5 0.5 0.5
368 8.272500 -4.776130 -6.591625 0.0 0.0 0.0 0.0 1.5 0.5 0.5
369 8.272500 -4.776130 -1.318325 0.0 0.0 0.0 0.0 1.5 0.5 0.5
370 8.272500 -4.776130 3.954975 0.0 0.0 0.0 0.0 1.5 0.5 0.5
371 8.272500 -4.776130 9.228275 0.0 0.0 0.0 0.0 1.5 0.5 0.5
372 8.272500 -4.776130 14.501575 0.0 0.0 0.0 0.0 1.5 0.5 0.5
373 6.618000 -1.910452 -11.864925 0.0 0.0 0.0 0.0 1.5 0.5 0.5
374 6.618000 -1.910452 -6.591625 0.0 0.0 0.0 0.0 1.5 0.5 0.5
375 6.618000 -1.910452 -1.318325 0.0 0.0 0.0 0.0 1.5 0.5 0.5
376 6.618000 -1.910452 3.954975 0.0 0.0 0.0 0.0 1.5 0.5 0.5
377 6.618000 -1.910452 9.228275 0.0 0.0 0.0 0.0 1.5 0.5 0.5
378 6.618000 -1.910452 14.501575 0.0 0.0 0.0 0.0 1.5 0.5 0.5
379 4.963500 0.955226 -11.864925 0.0 0.0 0.0 0.0 1.5 0.5 0.5
380 4.963500 0.955226 -6.591625 0.0 0.0 0.0 0.0 1.5 0.5 0.5
381 4.963500 0.955226 -1.318325 0.0 0.0 0.0 0.0 1.5 0.5 0.5
382 4.963500 0.955226 3.954975 0.0 0.0 0.0 0.0 1.5 0.5 0.5
383 4.963500 0.955226 9.228275 0.0 0.0 0.0 0.0 1.5 0.5 0.5
384 4.963500 0.955226 14.501575 0.0 0.0 0.0 0.0 1.5 0.5 0.5
385 3.309000 3.820904 -11.864925 0.0 0.0 0.0 0.0 1.5 0.5 0.5
386 3.309000 3.820904 -6.591625 0.0 0.0 0.0 0.0 1.5 0.5 0.5
387 3.309000 3.820904 -1.318325 0.0 0.0 0.0 0.0 1.5 0.5 0.5
388 3.309000 3.820904 3.954975 0.0 0.0 0.0 0.0 1.5 0.5 0.5
389 3.309000 3.820904 9.228275 0.0 0.0 0.0 0.0 1.5 0.5 0.5
390 3.309000 3.820904 14.501575 0.0 0.0 0.0 0.0 1.5 0.5 0.5
391 1.654500 6.686582 -11.864925 0.0 0.0 0.0 0.0 1.5 0.5 0.5
392 1.654500 6.686582 -6.591625 0.0 0.0 0.0 0.0 1.5 0.5 0.5
393 1.654500 6.686582 -1.318325 0.0 0.0 0.0 0.0 1.5 0.5 0.5
394 1.654500 6.686582 3.954975 0.0 0.0 0.0 0.0 1.5 0.5 0.5
395 1.654500 6.686582 9.228275 0.0 0.0 0.0 0.0 1.5 0.5 0.5
396 1.654500 6.686582 14.501575 0.0 0.0 0.0 0.0 1.5 0.5 0.5
397 13.236000 -7.641809 -11.864925 0.0 0.0 0.0 0.0 1.5 0.5 0.5
398 13.236000 -7.641809 -6.591625 0.0 0.0 0.0 0.0 1.5 0.5 0.5
399 13.236000 -7.641809 -1.318325 0.0 0.0 0.0 0.0 1.5 0.5 0.5
400 13.236000 -7.641809 3.954975 0.0 0.0 0.0 0.0 1.5 0.5 0.5
401 13.236000 -7.641809 9.228275 0.0 0.0 0.0 0.0 1.5 0.5 0.5
402 13.236000 -7.641809 14.501575 0.0 0.0 0.0 0.0 1.5 0.5 0.5
403 11.581500 -4.776130 -11.864925 0.0 0.0 0.0 0.0 1.5 0.5 0.5
404 11.581500 -4.776130 -6.591625 0.0 0.0 0.0 0.0 1.5 0.5 0.5
405 11.581500 -4.776130 -1.318325 0.0 0.0 0.0 0.0 1.5 0.5 0.5
406 11.581500 -4.776130 3.954975 0.0 0.0 0.0 0.0 1.5 0.5 0.5
407 11.581500 -4.776130 9.228275 0.0 0.0 0.0 0.0 1.5 0.5 0.5
408 11.581500 -4.776130 14.501575 0.0 0.0 0.0 0.0 1.5 0.5 0.5
409 9.926999 -1.910452 -11.864925 0.0 0.0 0.0 0.0 1.5 0.5 0.5
410 9.926999 -1.910452 -6.591625 0.0 0.0 0.0 0.0 1.5 0.5 0.5
411 9.926999 -1.910452 -1.318325 0.0 0.0 0.0 0.0 1.5 0.5 0.5
412 9.926999 -1.910452 3.954975 0.0 0.0 0.0 0.0 1.5 0.5 0.5
413 9.926999 -1.910452 9.228275 0.0 0.0 0.0 0.0 1.5 0.5 0.5
414 9.926999 -1.910452 14.501575 0.0 0.0 0.0 0.0 1.5 0.5 0.5
415 8.272499 0.955226 -11.864925 0.0 0.0 0.0 0.0 1.5 0.5 0.5
416 8.272499 0.955226 -6.591625 0.0 0.0 0.0 0.0 1.5 0.5 0.5
417 8.272499 0.955226 -1.318325 0.0 0.0 0.0 0.0 1.5 0.5 0.5
418 8.272499 0.955226 3.954975 0.0 0.0 0.0 0.0 1.5 0.5 0.5
419 8.272499 0.955226 9.228275 0.0 0.0 0.0 0.0 1.5 0.5 0.5
420 8.272499 0.955226 14.501575 0.0 0.0 0.0 0.0 1.5 0.5 0.5
421 6.618000 3.820904 -11.864925 0.0 0.0 0.0 0.0 1.5 0.5 0.5
422 6.618000 3.820904 -6.591625 0.0 0.0 0.0 0.0 1.5 0.5 0.5
423 6.618000 3.820904 -1.318325 0.0 0.0 0.0 0.0 1.5 0.5 0.5
424 6.618000 3.820904 3.954975 0.0 0.0 0.0 0.0 1.5 0.5 0.5
425 6.618000 3.820904 9.228275 0.0 0.0 0.0 0.0 1.5 0.5 0.5
426 6.618000 3.820904 14.501575 0.0 0.0 0.0 0.0 1.5 0.5 0.5
427 4.963500 6.686582 -11.864925 0.0 0.0 0.0 0.0 1.5 0.5 0.5
428 4.963500 6.686582 -6.591625 0.0 0.0 0.0 0.0 1.5 0.5 0.5
429 4.963500 6.686582 -1.318325 0.0 0.0 0.0 0.0 1.5 0.5 0.5
430 4.963500 6.686582 3.954975 0.0 0.0 0.0 0.0 1.5 0.5 0.5
431 4.963500 6.686582 9.228275 0.0 0.0 0.0 0.0 1.5 0.5 0.5
432 4.963500 6.686582 14.501575 0.0 0.0 0.0 0.0 1.5 0.5 0.5
