ITEM: TIMESTEP
2000000
ITEM: NUMBER OF ATOMS
972
ITEM: BOX BOUNDS pp pp pp
0.0000000000000000e+00 1.4797272000000000e+01
0.0000000000000000e+00 1.4797272000000000e+01
0.0000000000000000e+00 1.4797272000000000e+01
ITEM: ATOMS id type x y z c_orient[1] c_orient[2] c_orient[3] c_orient[4] c_shape[1] c_shape[2] c_shape[3] 
583 1 5.87115 0.899754 3.68755 -0.0619253 0.931809 -0.146745 -0.326135 1.5 0.5 0.5 
754 1 5.24644 1.08332 1.02149 0.82668 0.200156 0.509067 -0.131866 1.5 0.5 0.5 
204 1 0.0704167 5.57565 3.01429 0.19471 -0.388015 -0.241145 -0.867975 1.5 0.5 0.5 
156 1 2.21718 1.67859 2.53537 0.111265 -0.365623 -0.228182 -0.895473 1.5 0.5 0.5 
51 1 0.340236 0.618635 4.32697 -0.198984 0.321412 0.503575 0.77686 1.5 0.5 0.5 
87 1 3.1024 2.3034 3.16574 -0.407726 0.257374 0.775146 0.408249 1.5 0.5 0.5 
2 1 4.43167 2.08275 0.548593 -0.13723 -0.327433 -0.0449937 -0.933773 1.5 0.5 0.5 
119 1 4.65668 2.92903 3.77673 0.290249 0.857976 0.0416081 -0.421783 1.5 0.5 0.5 
465 1 3.41567 1.17283 3.0328 0.498752 -0.0240664 -0.861804 -0.0892187 1.5 0.5 0.5 
721 1 0.884472 2.45115 1.10704 -0.268279 -0.196238 0.761359 -0.556642 1.5 0.5 0.5 
745 1 3.68175 5.97403 3.1959 -0.765622 -0.468207 -0.419182 0.137449 1.5 0.5 0.5 
883 1 0.541883 6.37718 3.58639 0.0458723 0.290648 -0.429401 0.853835 1.5 0.5 0.5 
331 1 5.78608 3.24319 3.82819 -0.229625 -0.450878 0.127138 -0.853122 1.5 0.5 0.5 
222 1 6.72207 4.28324 5.93025 0.806742 0.501323 0.210986 -0.230926 1.5 0.5 0.5 
408 1 7.26699 2.15075 1.71277 -0.619688 -0.694229 -0.114381 0.347778 1.5 0.5 0.5 
820 1 5.10102 2.64628 1.10774 -0.341447 0.263238 0.727435 0.533815 1.5 0.5 0.5 
148 1 2.71457 4.68489 2.28488 0.322772 0.0419002 -0.936304 0.1319 1.5 0.5 0.5 
439 1 1.77463 2.50927 1.83566 0.226282 -0.0973763 -0.966545 -0.0714542 1.5 0.5 0.5 
793 1 0.460278 3.31371 7.04157 0.218553 0.308692 -0.26415 0.887225 1.5 0.5 0.5 
568 1 3.63394 0.0551696 3.65182 0.886184 -0.160258 0.42273 0.101463 1.5 0.5 0.5 
299 1 4.84431 4.37563 0.381159 0.128732 0.506661 0.119306 0.844091 1.5 0.5 0.5 
663 1 7.09415 6.91819 6.488 -0.876069 0.42173 -0.232872 0.0204268 1.5 0.5 0.5 
412 1 0.421865 7.29634 4.2282 -0.320314 0.900252 -0.00469449 -0.294828 1.5 0.5 0.5 
792 1 5.68517 2.22071 6.04178 -0.215518 -0.135016 0.733991 -0.629746 1.5 0.5 0.5 
922 1 5.86424 0.389725 4.81553 -0.194284 -0.110061 0.753922 -0.617852 1.5 0.5 0.5 
425 1 0.457224 4.23366 0.935704 0.265544 0.141466 -0.940582 -0.157412 1.5 0.5 0.5 
432 1 2.54535 3.50988 1.69217 -0.845128 -0.348466 -0.287404 0.285883 1.5 0.5 0.5 
391 1 0.36564 4.86873 7.04492 -0.259281 0.177345 0.83249 0.45638 1.5 0.5 0.5 
19 1 6.71267 3.14076 6.18794 0.0936851 0.0882773 -0.760246 0.636755 1.5 0.5 0.5 
242 1 2.50323 6.59928 1.26569 -0.31116 0.893419 -0.079845 -0.314018 1.5 0.5 0.5 
789 1 4.40701 1.93649 2.86686 0.402815 0.463253 -0.484795 0.622985 1.5 0.5 0.5 
307 1 1.49385 5.51633 0.830163 -0.42871 0.0101028 0.883774 0.187214 1.5 0.5 0.5 
505 1 4.64972 3.21321 0.300673 0.884629 -0.0100201 0.452245 -0.113165 1.5 0.5 0.5 
256 1 3.94034 7.14583 3.01915 0.194377 0.232744 -0.631609 0.713525 1.5 0.5 0.5 
476 1 6.32754 2.95647 1.36628 0.430517 0.844675 0.132552 -0.289153 1.5 0.5 0.5 
814 1 1.70928 6.63906 4.52019 0.153981 0.879043 0.161859 -0.421158 1.5 0.5 0.5 
884 1 5.77941 4.71956 0.740177 -0.777759 0.36959 -0.484126 -0.155296 1.5 0.5 0.5 
393 1 1.95987 2.7713 7.01073 0.0213124 -0.332776 -0.613967 -0.715437 1.5 0.5 0.5 
371 1 0.973516 6.25262 0.338433 0.814617 0.150066 0.518895 -0.21125 1.5 0.5 0.5 
377 1 0.718911 1.54898 4.5723 0.270502 -0.0611315 -0.95988 0.0415066 1.5 0.5 0.5 
736 1 2.84648 0.274639 2.88918 -0.42731 -0.81632 -0.217219 0.322248 1.5 0.5 0.5 
952 1 6.3538 6.80437 0.539243 0.258028 -0.364332 -0.543929 -0.71051 1.5 0.5 0.5 
239 1 1.16731 2.36325 4.75049 0.335259 0.249087 -0.688065 0.5934 1.5 0.5 0.5 
948 1 5.26664 7.38886 0.334226 -0.488686 -0.163635 0.758053 -0.399706 1.5 0.5 0.5 
888 1 0.931565 3.55024 4.48203 -0.0638706 0.41173 -0.132173 0.899405 1.5 0.5 0.5 
573 1 5.47207 1.95103 3.6124 0.74054 0.429957 0.360272 -0.370057 1.5 0.5 0.5 
263 1 3.51773 4.84373 3.1722 -0.329532 0.842936 -0.160661 -0.393771 1.5 0.5 0.5 
749 1 1.42467 0.44559 4.95757 -0.334307 0.911283 -0.0606736 -0.232636 1.5 0.5 0.5 
394 1 0.338903 1.41118 3.4409 -0.0632308 -0.409856 -0.114775 -0.902688 1.5 0.5 0.5 
614 1 0.964533 6.67225 7.22038 0.337594 0.0351417 -0.939252 0.0509922 1.5 0.5 0.5 
611 1 3.30453 0.537472 5.82564 0.557848 0.738066 0.266045 -0.27071 1.5 0.5 0.5 
881 1 0.727279 4.85588 3.96017 -0.492582 0.680053 -0.0385667 -0.541668 1.5 0.5 0.5 
72 1 2.0635 3.28241 4.61525 0.316943 -0.804737 0.195906 0.462132 1.5 0.5 0.5 
758 1 0.524047 2.52737 3.97312 0.293759 0.86762 0.078155 -0.393487 1.5 0.5 0.5 
141 1 6.30356 6.09681 1.93364 0.842779 -0.279567 0.383368 0.254154 1.5 0.5 0.5 
704 1 2.93353 5.70269 2.59657 -0.443619 0.850077 -0.212063 -0.188681 1.5 0.5 0.5 
912 1 2.16056 0.632164 1.93253 0.82322 0.1358 0.551093 -0.0127915 1.5 0.5 0.5 
854 1 3.10661 3.86207 2.73005 0.433783 -0.7887 0.300564 0.315351 1.5 0.5 0.5 
170 1 2.29476 2.91609 2.85189 -0.248413 -0.323399 0.500752 -0.763513 1.5 0.5 0.5 
544 1 4.16649 2.48008 5.92654 -0.196447 -0.417414 0.55814 -0.689677 1.5 0.5 0.5 
335 1 1.84718 4.36198 5.00425 -0.296766 -0.874557 -0.0221898 0.382868 1.5 0.5 0.5 
816 1 4.48921 4.26945 3.75521 0.837756 0.262729 0.459155 -0.135336 1.5 0.5 0.5 
837 1 5.36075 5.90088 1.42733 0.830265 -0.180026 0.502382 0.160822 1.5 0.5 0.5 
949 1 5.98752 1.8281 1.60868 -0.800651 -0.420478 -0.259327 0.338977 1.5 0.5 0.5 
270 1 2.30922 5.55046 1.6042 -0.324531 0.136085 0.860239 0.368985 1.5 0.5 0.5 
228 1 6.5398 0.933008 5.61269 -0.178588 -0.288801 0.409944 -0.84655 1.5 0.5 0.5 
726 1 7.35322 0.0604562 1.37535 -0.0859752 -0.457493 0.011341 -0.884974 1.5 0.5 0.5 
154 1 6.72792 7.2147 3.4406 -0.452256 0.275571 0.791046 0.306222 1.5 0.5 0.5 
850 1 6.97244 1.8771 6.3704 0.103266 0.86771 -0.263301 -0.408763 1.5 0.5 0.5 
775 1 6.99443 4.96774 1.47104 -0.157423 0.836911 -0.121626 -0.509907 1.5 0.5 0.5 
284 1 4.45802 0.967708 3.46927 -0.884772 0.132673 -0.444772 -0.0418715 1.5 0.5 0.5 
88 1 2.98293 3.41931 7.05368 -0.837536 -0.124001 -0.508491 0.156824 1.5 0.5 0.5 
281 1 2.79516 6.45798 5.00917 -0.458336 0.781182 -0.157672 -0.393475 1.5 0.5 0.5 
734 1 6.24433 0.5702 1.1949 0.158592 -0.855976 0.253256 0.421918 1.5 0.5 0.5 
868 1 4.01099 0.894329 0.899448 0.297113 -0.302091 -0.613199 -0.666673 1.5 0.5 0.5 
387 1 3.49952 6.78958 1.81167 0.406085 -0.0841549 -0.877746 -0.239947 1.5 0.5 0.5 
458 1 6.40716 3.9111 1.99116 -0.0972721 0.332217 0.162849 0.923932 1.5 0.5 0.5 
486 1 2.71934 2.89518 5.17062 -0.20984 -0.891455 -0.0553416 0.397758 1.5 0.5 0.5 
596 1 1.08152 5.6187 4.5062 -0.944464 -0.0480472 -0.313547 -0.0858296 1.5 0.5 0.5 
966 1 3.80246 5.52264 6.71961 -0.890296 -0.14043 -0.42705 0.0726706 1.5 0.5 0.5 
876 1 6.00717 3.52185 5.42501 0.28285 0.0670904 -0.845788 0.447368 1.5 0.5 0.5 
687 1 2.24064 1.73344 5.06264 0.623359 0.712228 0.23791 -0.21807 1.5 0.5 0.5 
509 1 3.87681 3.34255 3.25983 0.00675434 -0.427916 -0.229294 -0.874223 1.5 0.5 0.5 
497 1 1.59721 0.909959 6.21652 0.688064 -0.617307 0.373431 0.077779 1.5 0.5 0.5 
947 1 1.04492 2.15166 7.1168 -0.295512 0.0767922 0.952247 -0.00114491 1.5 0.5 0.5 
212 1 1.51791 4.56626 1.69486 -0.336731 0.189887 0.89864 0.207366 1.5 0.5 0.5 
303 1 5.49656 5.60292 4.09899 -0.0182404 0.905895 0.00581234 -0.423069 1.5 0.5 0.5 
250 1 5.1993 3.85554 1.18033 -0.147349 -0.322364 -0.161411 -0.921041 1.5 0.5 0.5 
597 1 1.53607 3.43028 1.18894 -0.3109 -0.857117 0.00573032 0.410682 1.5 0.5 0.5 
160 1 4.13058 1.38681 7.0399 0.284226 -0.11201 -0.845026 -0.438862 1.5 0.5 0.5 
133 1 1.39239 1.4129 1.20155 0.146902 0.35436 -0.165918 0.908471 1.5 0.5 0.5 
823 1 4.60854 6.49821 6.79623 0.413909 0.873455 0.127368 -0.222559 1.5 0.5 0.5 
764 1 3.76175 4.41878 7.203 0.2542 0.459246 -0.0030785 0.851156 1.5 0.5 0.5 
84 1 2.15334 5.36161 5.58216 0.00394566 -0.440624 -0.251932 -0.861606 1.5 0.5 0.5 
356 1 2.52317 4.02105 5.8728 -0.215876 0.313822 0.659228 0.64833 1.5 0.5 0.5 
710 1 3.24682 6.85609 6.3077 -0.392343 0.132013 0.910117 -0.0180701 1.5 0.5 0.5 
285 1 5.19757 6.72802 4.69207 0.460175 -0.0765426 -0.869645 -0.161551 1.5 0.5 0.5 
656 1 6.27893 2.38155 4.34602 0.43155 0.0291069 -0.86134 0.266481 1.5 0.5 0.5 
810 1 2.89105 4.75662 6.5868 0.244515 -0.281685 -0.682176 -0.628889 1.5 0.5 0.5 
861 1 3.32199 1.56204 5.57082 0.0572698 -0.396555 -0.239376 -0.8844 1.5 0.5 0.5 
938 1 5.29543 4.4869 4.46508 -0.245937 0.256617 0.604101 0.713249 1.5 0.5 0.5 
413 1 1.086 0.430407 1.05271 0.294297 0.206363 -0.452069 0.816356 1.5 0.5 0.5 
130 1 0.424892 3.58909 3.47432 -0.845834 -0.293851 -0.403434 0.188298 1.5 0.5 0.5 
238 1 5.45937 1.49778 5.21331 0.356163 0.892827 0.0319484 -0.273838 1.5 0.5 0.5 
960 1 4.50972 5.35387 3.59037 -0.271127 -0.211176 0.719379 -0.603646 1.5 0.5 0.5 
640 1 4.41704 5.92526 0.710149 0.0871937 -0.339902 -0.12687 -0.927776 1.5 0.5 0.5 
885 1 5.69281 4.99539 5.32227 0.0432625 -0.451081 0.211543 -0.86597 1.5 0.5 0.5 
926 1 2.99808 5.88374 6.08339 -0.272486 0.220887 0.887989 0.297382 1.5 0.5 0.5 
366 1 4.58839 6.32177 3.92064 -0.0631711 -0.507715 0.214054 -0.832115 1.5 0.5 0.5 
347 1 6.02736 6.11066 5.04179 -0.551227 -0.647011 -0.408734 0.332359 1.5 0.5 0.5 
37 1 6.60494 7.28846 5.41571 -0.00794129 0.374404 -0.0396691 0.926383 1.5 0.5 0.5 
722 1 6.23427 5.26412 7.03154 0.35276 -0.188167 -0.810008 -0.428999 1.5 0.5 0.5 
419 1 7.25661 5.18292 5.04822 0.87327 -0.351897 0.336985 0.00291516 1.5 0.5 0.5 
330 1 3.90472 0.061711 -0.0183318 0.316013 -0.245043 -0.809196 -0.430455 1.5 0.5 0.5 
457 1 0.0495493 6.13062 6.79889 -0.322061 0.849821 -0.204437 -0.363712 1.5 0.5 0.5 
763 1 -0.0314036 7.13623 6.53448 -0.0467445 -0.966786 -0.0299358 0.249486 1.5 0.5 0.5 
803 1 1.20741 3.50177 0.116046 0.664814 0.665263 0.314173 -0.129392 1.5 0.5 0.5 
556 1 7.28264 3.13927 7.19044 0.34817 -0.0305655 -0.799502 0.488508 1.5 0.5 0.5 
452 1 5.02598 0.108274 3.64332 0.164212 -0.349806 -0.42459 -0.818776 1.5 0.5 0.5 
615 1 0.161972 0.132723 6.47145 0.00667047 0.960578 0.0121735 -0.277665 1.5 0.5 0.5 
1 1 5.83723 0.768807 7.43351 0.478851 -0.820377 0.15758 0.269912 1.5 0.5 0.5 
923 1 7.29436 5.91836 2.87921 -0.692431 0.38091 -0.497961 -0.357046 1.5 0.5 0.5 
240 1 7.2839 0.0617818 5.58159 -0.346681 -0.379676 0.675264 -0.528844 1.5 0.5 0.5 
76 1 4.56125 0.289241 7.33633 0.452582 0.0512049 -0.889656 -0.032564 1.5 0.5 0.5 
714 1 1.71253 5.08401 9.22197 0.453692 0.776364 0.21629 -0.380318 1.5 0.5 0.5 
488 1 2.93714 2.13808 8.4288 0.937063 0.261273 0.222867 -0.0630788 1.5 0.5 0.5 
635 1 4.33222 6.83753 9.78095 -0.873264 0.295551 -0.309022 -0.233591 1.5 0.5 0.5 
3 1 1.87505 2.09305 7.8082 -0.166412 -0.257228 0.00232458 -0.951912 1.5 0.5 0.5 
312 1 0.702076 1.3918 8.98437 0.0409209 -0.165806 0.0886455 -0.981313 1.5 0.5 0.5 
56 1 1.5985 0.380582 11.9777 0.0221117 0.237225 -0.158044 0.958258 1.5 0.5 0.5 
967 1 1.30994 0.21838 7.47182 -0.0140933 0.346113 0.450524 0.822822 1.5 0.5 0.5 
177 1 6.64572 3.5087 13.6579 -0.432977 -0.191202 0.495231 -0.728505 1.5 0.5 0.5 
941 1 6.23554 7.08819 9.21774 -0.306956 -0.284213 0.472364 -0.775805 1.5 0.5 0.5 
893 1 1.3994 2.34529 11.7223 0.0499003 -0.248361 -0.395192 -0.882978 1.5 0.5 0.5 
616 1 7.15189 5.27768 7.40831 -0.35275 0.357196 0.62353 0.599323 1.5 0.5 0.5 
92 1 6.33358 1.69539 10.4242 -0.0606464 -0.21818 -0.262264 -0.93805 1.5 0.5 0.5 
697 1 4.03333 3.52248 7.87104 0.205273 -0.77866 0.490854 0.332588 1.5 0.5 0.5 
660 1 2.48214 0.572999 7.78352 -0.262725 -0.154261 0.673762 -0.673219 1.5 0.5 0.5 
382 1 3.2319 4.95867 9.70898 -0.42689 -0.11038 0.886061 -0.143098 1.5 0.5 0.5 
501 1 3.29949 2.48031 9.66324 -0.026486 0.321781 0.38182 0.866007 1.5 0.5 0.5 
592 1 3.4841 5.12838 13.7787 0.29072 0.3424 -0.654171 0.608527 1.5 0.5 0.5 
841 1 6.81272 5.55646 9.43828 -0.109015 0.954137 -0.159135 -0.228941 1.5 0.5 0.5 
913 1 5.15081 2.86063 7.98587 0.400258 0.0519058 -0.913244 0.0555354 1.5 0.5 0.5 
534 1 4.34876 0.118641 10.5775 0.0536987 -0.988261 0.0035772 0.14298 1.5 0.5 0.5 
617 1 6.6714 4.1718 9.82832 -0.235521 0.850394 -0.355474 -0.308219 1.5 0.5 0.5 
846 1 5.23876 3.99947 7.91716 0.921189 -0.0183163 0.349941 -0.169163 1.5 0.5 0.5 
417 1 2.65137 5.85152 12.5629 0.792482 0.480817 0.207634 -0.312531 1.5 0.5 0.5 
132 1 6.4559 0.472505 13.4683 -0.815736 0.254815 -0.505759 -0.117692 1.5 0.5 0.5 
246 1 2.4684 5.75612 9.22144 0.338954 -0.0750471 -0.927453 0.138956 1.5 0.5 0.5 
937 1 2.01918 5.67877 11.8079 0.707974 0.583863 0.255938 -0.303928 1.5 0.5 0.5 
609 1 3.41975 5.95689 9.9323 0.294537 0.238791 -0.542953 0.749285 1.5 0.5 0.5 
325 1 4.02056 6.16489 14.1437 0.422009 0.169606 -0.878373 0.146979 1.5 0.5 0.5 
779 1 5.50668 6.33483 7.68797 0.179605 0.229868 -0.542895 0.787508 1.5 0.5 0.5 
311 1 5.25053 0.355004 9.32348 0.114193 -0.162852 -0.978276 -0.0584412 1.5 0.5 0.5 
676 1 2.10962 0.556547 14.2647 -0.192627 0.879695 -0.265028 -0.344663 1.5 0.5 0.5 
642 1 4.7111 6.69895 10.8691 -0.333778 -0.848387 -0.105814 0.397034 1.5 0.5 0.5 
395 1 5.93185 1.30077 8.53595 0.902527 -0.332095 0.251611 0.108859 1.5 0.5 0.5 
560 1 4.64505 7.1462 13.9807 0.657755 0.554646 0.446162 -0.246303 1.5 0.5 0.5 
855 1 4.11093 1.19483 10.5086 -0.265713 0.118342 0.716992 0.633494 1.5 0.5 0.5 
361 1 1.3789 3.4998 11.5585 0.681878 0.534832 0.358819 -0.346765 1.5 0.5 0.5 
806 1 3.65615 3.666 14.5775 0.291512 0.882208 -0.0252638 -0.368906 1.5 0.5 0.5 
337 1 1.00654 1.17462 11.2703 0.53428 -0.797949 0.173774 0.218232 1.5 0.5 0.5 
54 1 5.6533 0.403592 12.4306 -0.492833 0.591544 -0.285011 -0.57093 1.5 0.5 0.5 
65 1 3.72541 7.42669 13.4944 -0.235988 0.411172 0.304899 0.826005 1.5 0.5 0.5 
832 1 6.5972 6.39569 13.662 0.117053 -0.867717 -0.0822334 0.476029 1.5 0.5 0.5 
569 1 1.98783 1.44745 12.1638 -0.0743802 -0.962746 -0.00234166 0.259965 1.5 0.5 0.5 
773 1 2.52269 4.13047 9.2987 0.810795 -0.283799 0.489638 0.149413 1.5 0.5 0.5 
168 1 2.86282 1.142 8.86418 0.130992 0.197142 -0.602495 0.762218 1.5 0.5 0.5 
296 1 3.34992 1.48466 9.82009 0.728495 0.611659 0.216013 -0.220239 1.5 0.5 0.5 
290 1 4.20679 2.25833 10.4605 -0.312546 -0.0851123 0.944035 -0.0622072 1.5 0.5 0.5 
318 1 6.4322 2.68423 9.61979 -0.181716 -0.436769 -0.294064 -0.830505 1.5 0.5 0.5 
309 1 1.02633 2.78864 10.6747 -0.231186 0.278323 0.794094 0.488369 1.5 0.5 0.5 
653 1 6.37681 0.764756 9.82354 0.403022 -0.870417 0.151158 0.238954 1.5 0.5 0.5 
472 1 6.03771 6.11323 8.80037 -0.0161458 -0.385051 0.0453516 -0.921639 1.5 0.5 0.5 
943 1 0.364622 4.10068 14.2813 0.126949 0.862062 0.303164 -0.385779 1.5 0.5 0.5 
120 1 1.64478 2.29967 12.9914 -0.636235 0.758798 -0.129724 0.0510038 1.5 0.5 0.5 
590 1 3.97463 4.74217 10.5739 -0.217302 -0.259447 0.59128 -0.732021 1.5 0.5 0.5 
652 1 7.00408 2.30731 14.0615 0.804108 0.382958 0.434925 -0.13264 1.5 0.5 0.5 
685 1 6.14186 6.33186 12.5095 0.177913 -0.337071 -0.41797 -0.82464 1.5 0.5 0.5 
55 1 4.41083 3.40978 10.4929 0.215071 0.892727 0.0387761 -0.394054 1.5 0.5 0.5 
698 1 4.08677 4.92563 14.7012 0.833645 0.293588 0.425951 -0.193411 1.5 0.5 0.5 
79 1 3.49411 3.70353 10.0268 -0.110406 -0.458933 0.203262 -0.857832 1.5 0.5 0.5 
524 1 1.08962 2.25358 14.3585 0.274675 0.208628 -0.914273 0.212444 1.5 0.5 0.5 
139 1 6.04274 3.68967 9.10798 0.033192 0.370423 0.394298 0.840366 1.5 0.5 0.5 
128 1 5.03368 4.82387 11.3396 0.0605842 -0.87895 0.364714 0.301264 1.5 0.5 0.5 
702 1 6.11387 2.75757 12.805 -0.389255 -0.226234 0.298302 -0.841614 1.5 0.5 0.5 
17 1 2.34742 3.24201 9.15239 -0.652816 0.71846 -0.229872 -0.0693218 1.5 0.5 0.5 
322 1 6.86975 0.922256 11.1346 -0.491109 0.168828 0.776585 -0.356686 1.5 0.5 0.5 
431 1 0.938931 5.43317 11.224 -0.910994 0.217089 -0.340595 -0.0834183 1.5 0.5 0.5 
853 1 1.25429 6.7734 11.4118 0.829222 0.528547 0.10624 -0.14745 1.5 0.5 0.5 
410 1 1.60651 4.58736 11.6732 0.929929 0.0518931 0.321172 -0.171428 1.5 0.5 0.5 
129 1 3.70578 2.51824 14.562 0.295311 0.152719 -0.595671 0.731194 1.5 0.5 0.5 
265 1 3.09504 6.67017 9.40258 0.309359 0.92094 0.0637545 -0.22826 1.5 0.5 0.5 
234 1 5.77322 4.79955 8.49808 0.444106 0.214781 -0.43088 0.755633 1.5 0.5 0.5 
801 1 0.480297 6.36412 10.3362 0.695996 0.507533 0.465847 -0.202452 1.5 0.5 0.5 
681 1 0.403854 4.21903 11.2792 -0.845061 0.11771 -0.495978 0.161311 1.5 0.5 0.5 
436 1 0.0922842 0.205065 9.45713 -0.449013 -0.822089 -0.233022 0.261262 1.5 0.5 0.5 
80 1 5.16654 1.73202 7.74807 0.243318 0.870023 0.123457 -0.410626 1.5 0.5 0.5 
659 1 3.33499 6.47798 13.2347 -0.189182 0.865577 -0.0951337 -0.453801 1.5 0.5 0.5 
844 1 5.59424 5.71725 11.238 -0.265406 -0.297634 0.330794 -0.855307 1.5 0.5 0.5 
842 1 2.98284 0.406175 9.87427 -0.398721 -0.828378 -0.131853 0.37071 1.5 0.5 0.5 
549 1 0.655951 0.673025 10.375 0.195713 0.0291933 -0.848124 0.491457 1.5 0.5 0.5 
864 1 2.72758 0.902594 12.9706 0.302445 -0.0223694 -0.80339 0.512437 1.5 0.5 0.5 
456 1 7.14016 4.52305 8.5009 0.205006 -0.292325 -0.709836 -0.607166 1.5 0.5 0.5 
400 1 2.57296 3.95454 12.984 -0.329161 0.200941 0.850036 0.358769 1.5 0.5 0.5 
292 1 4.32069 1.39674 11.6744 0.0436877 0.970622 -0.0335987 -0.234213 1.5 0.5 0.5 
376 1 5.29771 6.9565 11.6867 0.481961 -0.0695143 -0.82457 -0.288036 1.5 0.5 0.5 
530 1 0.863009 5.20429 8.37007 -0.0696394 -0.910372 -0.127621 0.387409 1.5 0.5 0.5 
12 1 2.66271 1.63273 13.9983 -0.325716 0.0343223 0.935127 -0.135158 1.5 0.5 0.5 
115 1 4.15739 0.640321 13.0665 0.374504 0.236184 -0.811773 0.380773 1.5 0.5 0.5 
214 1 0.342102 1.79755 10.1823 0.17466 0.185593 -0.503481 0.825564 1.5 0.5 0.5 
63 1 6.18076 2.47412 8.41637 -0.0936204 -0.957293 -0.0337649 0.271451 1.5 0.5 0.5 
817 1 0.528445 2.88593 9.63834 -0.78684 -0.532969 -0.212406 0.227401 1.5 0.5 0.5 
821 1 5.67537 1.50644 12.9654 -0.244154 -0.133537 0.729626 -0.624662 1.5 0.5 0.5 
200 1 6.29528 5.11949 13.6768 -0.43839 -0.0453886 0.846603 -0.298359 1.5 0.5 0.5 
561 1 1.58999 6.2555 8.20463 -0.737476 -0.553614 -0.354042 0.155868 1.5 0.5 0.5 
350 1 2.60788 3.01447 11.7826 0.0575055 0.884706 -0.00289665 -0.462579 1.5 0.5 0.5 
451 1 3.09324 3.2012 13.6445 -0.123179 -0.340753 0.40795 -0.838028 1.5 0.5 0.5 
838 1 5.1026 2.30742 12.5046 0.443722 0.107865 -0.641455 0.61645 1.5 0.5 0.5 
633 1 7.37633 1.1022 14.1678 -0.445343 -0.790659 -0.142842 0.395125 1.5 0.5 0.5 
892 1 7.05486 5.38558 14.4963 0.29932 -0.319876 -0.737079 -0.514588 1.5 0.5 0.5 
691 1 3.96401 2.77227 11.8147 -0.163276 0.909402 -0.118818 -0.363609 1.5 0.5 0.5 
741 1 1.74752 5.11781 14.0108 -0.250518 0.0487534 0.943641 -0.210728 1.5 0.5 0.5 
236 1 4.25559 5.81954 10.7138 0.935982 -0.091082 0.327812 -0.0904466 1.5 0.5 0.5 
796 1 0.493198 4.22044 7.97577 -0.29081 0.23915 0.903534 0.204606 1.5 0.5 0.5 
338 1 4.70154 4.31223 12.8552 -0.343166 0.239526 0.650139 0.634179 1.5 0.5 0.5 
217 1 2.03122 4.93738 12.6975 0.215111 0.308271 -0.169271 0.911067 1.5 0.5 0.5 
430 1 7.0063 3.09529 10.7615 -0.825942 0.298822 -0.458718 -0.134549 1.5 0.5 0.5 
468 1 6.53373 1.75967 13.5406 -0.372011 -0.0707155 0.535352 -0.754987 1.5 0.5 0.5 
175 1 6.21953 4.01099 12.5537 0.289419 0.868506 0.100568 -0.389641 1.5 0.5 0.5 
777 1 5.3196 3.13553 11.7953 -0.0185629 0.422246 0.395005 0.81568 1.5 0.5 0.5 
929 1 5.50744 5.30891 12.5274 0.377326 -0.228177 -0.832119 -0.336361 1.5 0.5 0.5 
474 1 3.94551 4.42047 11.9591 0.896971 -0.153073 0.34145 -0.235422 1.5 0.5 0.5 
747 1 1.80633 6.9947 12.5128 -0.288509 -0.179561 0.544363 -0.766935 1.5 0.5 0.5 
574 1 0.122229 6.89265 14.5952 -0.158356 0.3669 0.539329 0.741237 1.5 0.5 0.5 
526 1 0.987693 3.39128 13.66 0.0714748 0.847808 0.247868 -0.46333 1.5 0.5 0.5 
478 1 4.53449 5.43116 7.71359 -0.110461 -0.48204 -0.130299 -0.859335 1.5 0.5 0.5 
188 1 1.42755 4.19401 8.51104 0.444315 0.169401 -0.772963 0.420019 1.5 0.5 0.5 
10 1 0.246294 0.937586 14.6615 -0.185485 -0.928296 -0.0829024 0.311431 1.5 0.5 0.5 
527 1 7.41709 4.25849 10.4441 -0.364339 -0.182091 0.741586 -0.533058 1.5 0.5 0.5 
440 1 2.40518 0.049709 8.80018 -0.0581583 0.288539 0.449732 0.84327 1.5 0.5 0.5 
677 1 3.52316 1.5134 14.7298 0.347251 0.113064 -0.664767 0.651704 1.5 0.5 0.5 
623 1 1.06776 8.80438 0.21218 0.413528 0.770283 0.12365 -0.469435 1.5 0.5 0.5 
455 1 5.73353 8.76291 1.59339 -0.555321 0.131235 0.678477 0.462671 1.5 0.5 0.5 
268 1 5.3132 14.7366 1.04192 0.718428 -0.482911 0.450419 0.218588 1.5 0.5 0.5 
351 1 3.87324 14.3109 1.27888 0.302668 -0.225245 -0.814432 -0.44086 1.5 0.5 0.5 
571 1 2.49316 8.83427 2.22925 -0.334137 -0.158623 0.695256 -0.616287 1.5 0.5 0.5 
557 1 7.07456 7.64298 0.533082 0.867006 -0.173666 0.464397 -0.0497656 1.5 0.5 0.5 
52 1 4.27713 10.669 4.09918 -0.438952 -0.339468 0.703098 -0.444675 1.5 0.5 0.5 
794 1 1.75014 8.63334 1.07308 0.0763594 0.487652 0.0441453 0.868571 1.5 0.5 0.5 
57 1 7.09044 9.04798 3.07391 0.447996 -0.32099 -0.706408 -0.444131 1.5 0.5 0.5 
776 1 5.65584 10.5641 3.03542 0.710939 -0.457019 0.4275 0.320848 1.5 0.5 0.5 
717 1 7.30006 14.2586 2.49714 -0.792192 0.438786 -0.41521 -0.0865964 1.5 0.5 0.5 
928 1 6.46098 12.3525 2.69346 0.94334 0.0124261 0.310233 -0.11709 1.5 0.5 0.5 
639 1 0.130722 12.2416 3.58831 -0.137121 -0.345357 0.249034 -0.894376 1.5 0.5 0.5 
105 1 6.98167 7.94322 6.22705 -0.939173 -0.1004 -0.328233 0.0117091 1.5 0.5 0.5 
28 1 1.07959 12.4908 0.295805 0.837615 -0.369868 0.354611 0.18934 1.5 0.5 0.5 
725 1 6.74672 13.2495 5.8132 0.179696 0.395045 -0.127514 0.891846 1.5 0.5 0.5 
368 1 4.1752 11.8486 6.90401 -0.767455 0.473844 -0.431674 0.0119338 1.5 0.5 0.5 
349 1 3.19653 9.65182 2.57319 -0.412578 -0.0281789 0.881121 -0.229372 1.5 0.5 0.5 
899 1 2.33813 11.4112 2.32265 0.626918 0.0940781 -0.761654 0.134183 1.5 0.5 0.5 
315 1 1.03322 10.5659 0.291357 0.0888398 -0.480561 -0.29361 -0.821561 1.5 0.5 0.5 
420 1 1.9393 12.2071 1.30564 0.320442 0.436028 -0.651483 0.531758 1.5 0.5 0.5 
164 1 3.10225 10.1899 1.44274 0.575394 0.696111 0.135677 -0.407362 1.5 0.5 0.5 
906 1 4.88414 9.7349 7.05477 -0.830098 0.260858 -0.4168 -0.262997 1.5 0.5 0.5 
907 1 4.65208 11.9228 4.24292 0.510764 -0.628242 0.400274 0.4292 1.5 0.5 0.5 
830 1 5.87155 11.7108 1.87127 0.257813 -0.915439 0.0152737 0.30866 1.5 0.5 0.5 
196 1 3.98732 14.5575 6.42714 0.226556 0.168736 -0.819619 0.498424 1.5 0.5 0.5 
919 1 7.00411 11.561 6.41337 -0.16041 -0.464586 -0.0799496 -0.8672 1.5 0.5 0.5 
189 1 6.694 10.1294 5.84318 0.529441 0.0126467 -0.82362 0.202936 1.5 0.5 0.5 
123 1 0.419447 7.51079 3.12904 0.0248648 0.29643 0.299622 0.906498 1.5 0.5 0.5 
9 1 1.73634 14.1704 1.58087 0.846587 0.0671858 0.516617 0.109011 1.5 0.5 0.5 
26 1 2.87559 14.0238 3.33861 -0.193998 -0.281852 0.578884 -0.740147 1.5 0.5 0.5 
278 1 4.00111 13.7304 3.62324 -0.0133512 -0.364334 0.143758 -0.920009 1.5 0.5 0.5 
908 1 1.16295 11.0111 6.63512 0.610161 0.686774 0.200067 -0.340614 1.5 0.5 0.5 
475 1 2.31605 13.5854 2.56675 -0.684409 0.596883 -0.27256 -0.317847 1.5 0.5 0.5 
731 1 2.29192 8.54819 5.10617 0.119445 -0.253675 -0.115792 -0.952877 1.5 0.5 0.5 
839 1 4.5102 13.9876 7.3189 -0.611458 -0.727147 -0.14297 0.277373 1.5 0.5 0.5 
343 1 5.07145 8.13639 5.292 -0.653174 -0.655097 -0.184583 0.331873 1.5 0.5 0.5 
273 1 6.02478 12.8025 1.83847 0.888898 0.280875 0.325997 -0.15715 1.5 0.5 0.5 
153 1 1.39652 11.5146 0.593989 -0.174716 -0.487974 0.143684 -0.843036 1.5 0.5 0.5 
287 1 5.47569 8.34911 6.35831 -0.107173 0.402745 0.485724 0.768364 1.5 0.5 0.5 
845 1 3.30796 13.6985 0.513251 0.309795 -0.890671 0.0644483 0.326464 1.5 0.5 0.5 
496 1 5.29795 12.365 1.10599 -0.207048 0.898712 -0.119299 -0.367716 1.5 0.5 0.5 
945 1 0.491767 13.5684 5.96931 0.700006 0.58538 0.178244 -0.368172 1.5 0.5 0.5 
620 1 0.211326 7.91619 0.546846 -0.663148 -0.645425 -0.247632 0.286948 1.5 0.5 0.5 
269 1 6.10021 10.0661 1.29189 0.375657 -0.350287 -0.374481 -0.771974 1.5 0.5 0.5 
580 1 6.43986 9.05516 6.1465 -0.431363 -0.167204 0.670415 -0.580096 1.5 0.5 0.5 
519 1 6.42104 10.9836 5.50051 -0.207817 0.449126 0.435064 0.752208 1.5 0.5 0.5 
867 1 1.19613 10.0129 4.03305 -0.029591 -0.414522 0.0104614 -0.909498 1.5 0.5 0.5 
321 1 2.19762 7.39775 5.43013 0.287676 0.827619 0.167848 -0.451794 1.5 0.5 0.5 
705 1 0.575819 14.5117 3.52628 -0.304627 -0.150648 0.900758 -0.27045 1.5 0.5 0.5 
277 1 1.90912 7.47829 0.286988 -0.192119 0.889669 0.00811324 -0.414142 1.5 0.5 0.5 
114 1 6.10663 14.2647 1.58453 -0.31363 -0.344194 0.576699 -0.671255 1.5 0.5 0.5 
531 1 5.51234 11.1192 0.844441 -0.400298 -0.184886 0.824043 -0.355712 1.5 0.5 0.5 
328 1 7.12651 10.9473 2.24089 -0.157689 0.420354 0.421454 0.787917 1.5 0.5 0.5 
507 1 4.08861 10.6815 6.72075 0.1004 0.974644 0.0782026 -0.184049 1.5 0.5 0.5 
392 1 2.42835 7.61313 1.46266 0.233155 -0.0908843 -0.765309 -0.593027 1.5 0.5 0.5 
341 1 4.01924 9.26359 3.12505 -0.645881 0.664472 -0.197469 -0.319875 1.5 0.5 0.5 
211 1 7.15493 11.629 3.38913 -0.266638 -0.363962 0.628081 -0.633995 1.5 0.5 0.5 
68 1 2.50793 10.1865 5.92819 0.731158 0.528777 0.379586 -0.204248 1.5 0.5 0.5 
67 1 0.714111 8.6056 3.5857 0.630398 -0.670567 0.375213 0.110243 1.5 0.5 0.5 
367 1 3.57981 10.7072 2.31519 -0.282822 0.835275 -0.214035 -0.420137 1.5 0.5 0.5 
593 1 3.34927 11.9533 2.96728 0.624646 -0.721479 0.249777 0.164002 1.5 0.5 0.5 
109 1 0.00816534 11.287 3.08252 0.206429 -0.871555 0.0845934 0.436604 1.5 0.5 0.5 
783 1 5.61356 10.7853 4.7824 -0.345826 0.236662 0.863159 0.281695 1.5 0.5 0.5 
606 1 3.05894 11.1149 4.3528 0.782209 -0.390974 0.397318 0.278257 1.5 0.5 0.5 
53 1 5.63675 11.8662 5.01817 -0.385205 0.697702 -0.33772 -0.500774 1.5 0.5 0.5 
275 1 0.171824 7.98269 7.28268 -0.0765734 0.194842 0.355764 0.910827 1.5 0.5 0.5 
859 1 3.26683 8.87923 7.06776 0.158343 -0.121849 -0.743281 -0.638446 1.5 0.5 0.5 
786 1 4.94238 13.235 4.37797 0.267235 -0.203163 -0.774223 -0.536553 1.5 0.5 0.5 
755 1 1.41973 7.65521 4.81534 0.0261852 -0.944124 -0.0307466 0.327108 1.5 0.5 0.5 
291 1 0.142693 13.3765 3.65339 -0.00855347 0.324262 0.197709 0.925036 1.5 0.5 0.5 
317 1 6.61725 13.4245 2.52118 0.127554 -0.367338 -0.716184 -0.579545 1.5 0.5 0.5 
231 1 2.99878 12.9862 3.28959 0.224726 -0.273043 -0.634404 -0.68737 1.5 0.5 0.5 
163 1 1.00319 11.1965 3.66206 -0.291266 0.274761 0.91461 0.0562069 1.5 0.5 0.5 
828 1 2.61082 12.47 2.16804 -0.863316 0.290414 -0.391913 -0.12942 1.5 0.5 0.5 
6 1 1.59721 11.8616 4.87778 0.365697 -0.210395 -0.904396 -0.0637736 1.5 0.5 0.5 
266 1 5.56956 9.18422 5.39814 0.315213 0.0530242 -0.94731 0.0207862 1.5 0.5 0.5 
718 1 4.61575 12.9956 0.424025 -0.426901 -0.219707 0.752441 -0.450908 1.5 0.5 0.5 
767 1 1.20655 13.1628 1.60114 -0.387329 -0.203097 0.823518 -0.361312 1.5 0.5 0.5 
462 1 3.80288 12.55 3.94426 -0.796178 -0.510295 -0.313704 0.0853808 1.5 0.5 0.5 
738 1 3.69768 13.4612 6.39382 0.307154 -0.123866 -0.873131 -0.357708 1.5 0.5 0.5 
672 1 5.25957 14.2374 4.59222 0.196649 -0.29641 -0.280488 -0.891514 1.5 0.5 0.5 
302 1 2.0182 9.779 1.84769 0.189514 -0.858436 0.287495 0.380157 1.5 0.5 0.5 
60 1 4.52956 12.8621 7.21326 0.364704 0.018856 -0.873143 0.322889 1.5 0.5 0.5 
618 1 6.64458 12.1876 5.54754 0.339223 0.789805 0.0595023 -0.507539 1.5 0.5 0.5 
113 1 2.98682 12.5359 6.82612 0.310329 -0.0269708 -0.950223 0.00671116 1.5 0.5 0.5 
512 1 1.78903 8.80506 4.12746 0.654177 0.697375 0.216568 -0.197026 1.5 0.5 0.5 
14 1 1.70483 10.6234 4.70598 -0.567136 -0.693058 -0.285258 0.34155 1.5 0.5 0.5 
151 1 1.60792 9.74443 0.657567 -0.0687115 -0.949616 0.052473 0.301254 1.5 0.5 0.5 
152 1 1.81152 14.1695 5.45849 -0.408451 0.11237 0.841939 0.334185 1.5 0.5 0.5 
235 1 4.9637 8.89587 0.653477 0.54968 0.755624 0.211057 -0.286947 1.5 0.5 0.5 
898 1 3.98779 8.37114 4.76924 -0.144168 -0.404946 0.369102 -0.824013 1.5 0.5 0.5 
111 1 5.89834 9.32422 2.86749 0.692615 -0.543304 0.447586 0.157395 1.5 0.5 0.5 
857 1 0.639435 14.058 4.83625 -0.150339 0.388525 0.854497 0.310293 1.5 0.5 0.5 
421 1 4.62423 9.80151 5.27413 -0.386029 -0.260182 0.74633 -0.475687 1.5 0.5 0.5 
306 1 4.78172 10.7807 0.0222096 -0.204377 -0.384741 0.271123 -0.858311 1.5 0.5 0.5 
16 1 1.82045 10.7388 1.25053 0.338335 -0.235115 -0.750995 -0.516001 1.5 0.5 0.5 
684 1 5.18442 9.9835 0.683938 -0.0879293 -0.388687 0.336437 -0.85323 1.5 0.5 0.5 
459 1 0.387342 8.33362 2.12609 0.53893 0.132046 -0.720563 0.415821 1.5 0.5 0.5 
800 1 0.275721 9.38089 6.72872 -0.319399 -0.809255 -0.29123 0.397839 1.5 0.5 0.5 
74 1 1.15432 13.9446 0.507369 0.109766 0.911465 -0.0715867 -0.389946 1.5 0.5 0.5 
707 1 2.08851 9.65643 4.76168 -0.519735 -0.746611 -0.34611 0.229468 1.5 0.5 0.5 
567 1 3.90816 8.40254 2.52205 -0.389855 -0.076632 0.904065 -0.157505 1.5 0.5 0.5 
460 1 5.98021 12.9311 5.00233 -0.281041 0.44249 0.593416 0.610799 1.5 0.5 0.5 
61 1 4.37632 7.2984 4.16216 -0.566086 0.71386 -0.183662 -0.369078 1.5 0.5 0.5 
956 1 2.50063 12.0114 5.73249 -0.212802 -0.229474 0.774377 -0.549906 1.5 0.5 0.5 
737 1 2.77773 7.77378 2.65455 0.155333 -0.382189 -0.390095 -0.823182 1.5 0.5 0.5 
98 1 6.28442 14.1595 5.26707 -0.703607 0.534244 -0.462768 -0.0732576 1.5 0.5 0.5 
95 1 0.509716 12.6256 4.68626 -0.190053 0.382069 0.482729 0.764772 1.5 0.5 0.5 
608 1 5.18638 13.6375 1.47438 -0.0717342 0.402209 0.570637 0.712359 1.5 0.5 0.5 
670 1 5.90458 7.85998 0.69081 -0.507103 0.711204 -0.190608 -0.447999 1.5 0.5 0.5 
500 1 3.6097 9.58337 4.86426 -0.489381 0.29106 0.574808 0.587695 1.5 0.5 0.5 
442 1 6.04019 8.17499 3.13748 -0.34061 0.824007 -0.360718 -0.273642 1.5 0.5 0.5 
49 1 3.41035 11.3806 6.07819 0.13238 -0.925422 0.124366 0.332569 1.5 0.5 0.5 
388 1 3.20164 14.1614 5.44978 0.36238 0.00853349 -0.911962 0.192181 1.5 0.5 0.5 
970 1 4.38486 7.68038 6.64715 -0.902616 -0.0811971 -0.397004 0.145188 1.5 0.5 0.5 
851 1 1.83044 13.1524 6.13216 0.231733 -0.917897 0.0443541 0.319056 1.5 0.5 0.5 
550 1 5.99432 11.4397 9.5244 0.922827 -0.135068 0.353918 -0.0699168 1.5 0.5 0.5 
834 1 5.72722 14.0685 14.0007 0.773219 0.404196 0.486244 -0.048213 1.5 0.5 0.5 
232 1 4.93909 12.1137 8.97803 -0.881484 0.275278 -0.381612 0.0397529 1.5 0.5 0.5 
654 1 3.55357 9.52154 10.2749 -0.0625397 -0.406942 0.118915 -0.903519 1.5 0.5 0.5 
655 1 0.458719 12.6169 14.0234 0.277662 -0.179553 -0.84525 -0.419782 1.5 0.5 0.5 
15 1 2.75137 7.31063 12.9188 -0.912992 0.0127807 -0.407771 -0.0023017 1.5 0.5 0.5 
673 1 7.16755 13.2851 11.1348 -0.379411 0.256309 0.860081 0.224978 1.5 0.5 0.5 