ITEM: TIMESTEP
2000000
ITEM: NUMBER OF ATOMS
972
ITEM: BOX BOUNDS pp pp pp
0.0000000000000000e+00 1.4797272000000000e+01
0.0000000000000000e+00 1.4797272000000000e+01
0.0000000000000000e+00 1.4797272000000000e+01
ITEM: ATOMS id type x y z c_orient[1] c_orient[2] c_orient[3] c_orient[4] c_shape[1] c_shape[2] c_shape[3] 
177 1 2.29049 0.852619 0.731033 -0.223968 0.808259 -0.360305 -0.408333 1.5 0.5 0.5 
99 1 7.20984 2.10556 0.497187 -0.266576 -0.845338 0.24058 0.395553 1.5 0.5 0.5 
337 1 3.08521 4.30406 7.35783 -0.334441 -0.488174 -0.0206124 -0.80586 1.5 0.5 0.5 
893 1 4.29638 0.112862 2.8684 0.367823 0.214046 -0.445575 0.787625 1.5 0.5 0.5 
93 1 4.46605 1.67604 1.49564 -0.377106 -0.222956 0.418186 -0.79574 1.5 0.5 0.5 
785 1 3.37422 1.54123 1.11182 0.256642 0.845715 -0.139297 -0.446651 1.5 0.5 0.5 
699 1 3.86074 0.605648 1.97845 0.0550452 0.889023 -0.250478 -0.3793 1.5 0.5 0.5 
304 1 4.64221 1.10982 2.57406 0.386404 -0.302773 -0.870567 -0.0336713 1.5 0.5 0.5 
652 1 3.32137 2.73357 0.945353 -0.193418 0.824384 -0.448843 -0.285517 1.5 0.5 0.5 
234 1 4.99843 2.11491 2.35309 -0.286284 0.855605 -0.370232 -0.221157 1.5 0.5 0.5 
684 1 6.97426 1.47988 4.39606 -0.560399 -0.010947 0.599687 -0.571146 1.5 0.5 0.5 
485 1 7.24284 3.69897 6.65462 -0.660945 -0.585376 -0.14594 0.446305 1.5 0.5 0.5 
708 1 2.55251 6.97266 1.44585 0.750129 -0.455948 0.466761 -0.107481 1.5 0.5 0.5 
301 1 0.846412 3.17661 1.67802 -0.0651502 -0.918515 0.113796 0.37301 1.5 0.5 0.5 
838 1 1.28521 4.40317 1.42303 -0.313023 -0.197724 0.482559 -0.793763 1.5 0.5 0.5 
91 1 1.63137 3.85642 2.29435 0.526114 0.684889 0.00442372 -0.504095 1.5 0.5 0.5 
96 1 4.63915 5.70891 0.0469227 -0.873897 0.135191 -0.435647 0.168045 1.5 0.5 0.5 
521 1 5.09375 6.82036 7.239 0.350356 -0.277146 -0.893369 0.0482909 1.5 0.5 0.5 
936 1 4.11016 3.10817 1.64415 0.231682 0.84707 -0.262794 -0.399668 1.5 0.5 0.5 
511 1 3.82832 3.68364 0.398441 0.380777 -0.333502 -0.834116 -0.219172 1.5 0.5 0.5 
400 1 5.44636 6.30961 0.441471 -0.33101 0.294312 0.895459 -0.0443478 1.5 0.5 0.5 
376 1 4.86407 3.85741 1.17526 0.269159 0.815372 -0.090245 -0.504557 1.5 0.5 0.5 
263 1 5.14301 3.34185 2.10788 0.446254 0.0545301 -0.685106 0.573161 1.5 0.5 0.5 
137 1 5.56462 4.56248 1.8641 -0.0463398 0.465775 0.405001 0.785417 1.5 0.5 0.5 
470 1 6.39524 3.66679 2.41249 0.245377 -0.419446 -0.749279 -0.44993 1.5 0.5 0.5 
769 1 5.18127 5.12963 0.802439 0.0110896 0.899778 -0.217733 -0.377979 1.5 0.5 0.5 
50 1 1.96795 4.98438 2.16525 0.114441 0.950368 -0.0802115 -0.277975 1.5 0.5 0.5 
783 1 1.38566 5.6656 1.2807 0.25127 -0.886217 0.230522 0.313594 1.5 0.5 0.5 
875 1 1.48313 6.78099 1.14463 0.402634 -0.124549 -0.843564 0.332826 1.5 0.5 0.5 
442 1 2.11272 6.12458 2.1222 0.880047 0.0360292 0.398159 -0.256297 1.5 0.5 0.5 
528 1 0.885757 6.13776 0.474442 -0.316074 -0.225019 0.639864 -0.663353 1.5 0.5 0.5 
887 1 6.72657 0.260635 4.6134 -0.404661 0.760771 -0.416613 -0.289672 1.5 0.5 0.5 
513 1 3.033 6.47471 2.6417 0.383828 -0.318447 -0.863514 0.0749064 1.5 0.5 0.5 
258 1 2.65982 1.88485 0.156545 -0.480687 0.359461 0.799775 -0.00934822 1.5 0.5 0.5 
518 1 3.65172 5.32956 7.091 0.272375 0.798358 -0.182083 -0.505255 1.5 0.5 0.5 
736 1 6.69896 4.68383 2.12699 0.177344 -0.479664 -0.636954 -0.576854 1.5 0.5 0.5 
62 1 5.95606 7.27993 0.131299 -0.863044 -0.00310052 -0.424637 0.273548 1.5 0.5 0.5 
85 1 6.29914 5.33715 1.29804 0.796885 0.344529 0.362473 -0.338951 1.5 0.5 0.5 
55 1 6.52588 6.45168 1.0769 -0.536903 -0.00173785 0.797097 -0.276349 1.5 0.5 0.5 
420 1 3.97446 6.1405 6.35744 0.534471 -0.0794015 -0.767254 0.345482 1.5 0.5 0.5 
734 1 2.05195 0.339802 4.31237 -0.485244 0.0932727 0.799659 -0.341151 1.5 0.5 0.5 
610 1 0.22592 0.502023 3.07843 0.262815 -0.384102 -0.861649 -0.202372 1.5 0.5 0.5 
328 1 0.766677 1.68766 2.92922 0.723007 -0.583038 0.368847 0.0357662 1.5 0.5 0.5 
467 1 1.28378 0.767129 3.51047 0.495735 -0.0855573 -0.745108 0.437881 1.5 0.5 0.5 
23 1 1.83373 1.98317 3.31938 0.804678 0.325937 0.363477 -0.337851 1.5 0.5 0.5 
640 1 2.20474 1.37721 4.24307 -0.302099 -0.867671 0.125475 0.37435 1.5 0.5 0.5 
133 1 0.298432 2.34293 2.16389 -0.581648 -0.729522 -0.0755484 0.351817 1.5 0.5 0.5 
859 1 3.22662 1.78939 4.56161 -0.140788 -0.460962 -0.30658 -0.820793 1.5 0.5 0.5 
149 1 2.86842 2.43751 3.78594 0.40096 -0.821843 0.304432 0.266697 1.5 0.5 0.5 
953 1 5.25608 0.429888 3.27232 0.0231299 -0.417787 -0.447863 -0.79015 1.5 0.5 0.5 
913 1 5.6604 1.48435 2.96236 -0.219186 -0.411084 -0.169169 -0.868533 1.5 0.5 0.5 
675 1 6.23236 0.741737 3.71633 0.64626 -0.614008 0.452761 -0.0187022 1.5 0.5 0.5 
856 1 6.6014 1.92442 3.50156 -0.323859 0.405904 0.853414 0.0451869 1.5 0.5 0.5 
944 1 0.707642 -0.0330245 4.05776 -0.375497 -0.824267 0.0789796 0.416351 1.5 0.5 0.5 
869 1 0.0601417 2.88066 5.74512 0.276077 0.371701 0.214084 0.860109 1.5 0.5 0.5 
738 1 1.32693 2.67682 2.57177 -0.0226107 0.906286 -0.25928 -0.333029 1.5 0.5 0.5 
710 1 2.13405 3.16223 3.25805 -0.868042 0.133122 -0.47221 0.076153 1.5 0.5 0.5 
455 1 2.27009 4.40662 3.2944 0.48658 0.202587 -0.576585 0.624297 1.5 0.5 0.5 
772 1 3.99139 4.10376 4.36292 -0.443157 0.796543 -0.385888 -0.142203 1.5 0.5 0.5 
578 1 3.00939 3.59227 3.74626 0.275418 0.391928 -0.00170338 0.877801 1.5 0.5 0.5 
569 1 3.60306 3.14367 4.65574 0.441951 0.270995 -0.348447 0.780913 1.5 0.5 0.5 
706 1 3.46505 4.62739 3.43431 0.472899 -0.225903 -0.851413 0.0207385 1.5 0.5 0.5 
837 1 4.72708 3.38754 4.97788 -0.786873 0.40503 -0.453497 0.10546 1.5 0.5 0.5 
482 1 5.98609 2.53161 2.73556 0.821221 0.322889 0.294959 -0.366521 1.5 0.5 0.5 
83 1 6.89442 3.01525 3.1338 -0.147135 -0.879658 0.151681 0.426082 1.5 0.5 0.5 
766 1 5.03385 4.43511 4.64679 -0.0205376 0.46223 0.512798 0.723159 1.5 0.5 0.5 
658 1 0.504024 5.499 4.30883 0.399939 -0.121029 -0.812739 0.406025 1.5 0.5 0.5 
182 1 0.578653 6.77672 4.22197 0.0506249 -0.495951 -0.533209 -0.68349 1.5 0.5 0.5 
15 1 2.69112 0.415957 1.73043 -0.775098 0.328144 -0.538199 0.0434241 1.5 0.5 0.5 
873 1 2.69242 5.3912 2.83283 -0.787121 -0.455686 -0.226915 0.348283 1.5 0.5 0.5 
67 1 4.34413 6.66475 2.72172 -0.817659 0.157197 -0.5167 0.199358 1.5 0.5 0.5 
679 1 4.47065 5.05837 4.02211 -0.500309 -0.0912249 0.486128 -0.710667 1.5 0.5 0.5 
509 1 3.81332 5.83585 3.4234 -0.833397 0.249791 -0.475238 0.131155 1.5 0.5 0.5 
281 1 4.82648 6.23307 3.84674 0.372716 -0.75584 0.465203 0.270878 1.5 0.5 0.5 
190 1 5.32132 7.15918 3.30034 -0.171283 -0.437904 -0.359666 -0.805942 1.5 0.5 0.5 
303 1 2.14032 7.16946 4.63685 -0.194016 -0.43212 -0.0981471 -0.875213 1.5 0.5 0.5 
789 1 5.42817 5.53306 4.52811 0.531034 -0.666441 0.485349 0.195691 1.5 0.5 0.5 
711 1 5.798 6.41094 4.22214 -0.201171 -0.462607 -0.169869 -0.846563 1.5 0.5 0.5 
160 1 6.42029 5.96587 5.0279 0.486658 0.10734 -0.570701 0.652643 1.5 0.5 0.5 
493 1 0.430067 1.06866 7.01863 -0.332242 0.330679 0.883249 0.0117933 1.5 0.5 0.5 
472 1 0.974908 2.0066 6.4529 0.0870842 -0.466271 -0.790244 -0.387972 1.5 0.5 0.5 
530 1 5.91177 4.74104 5.19774 -0.851902 0.207292 -0.449704 0.170467 1.5 0.5 0.5 
107 1 3.05761 0.653602 4.80861 0.748302 -0.449596 0.472844 -0.119691 1.5 0.5 0.5 
659 1 3.91647 1.06759 5.56933 0.623512 0.0504804 -0.613242 0.482305 1.5 0.5 0.5 
179 1 4.60214 0.425205 6.20634 0.407304 0.168247 -0.591754 0.674999 1.5 0.5 0.5 
930 1 4.03924 2.2388 5.28411 0.0259373 0.444225 0.42924 0.785967 1.5 0.5 0.5 
898 1 5.00233 1.5365 5.92171 -0.348332 0.407675 0.830671 0.149836 1.5 0.5 0.5 
146 1 6.79129 7.01095 4.53703 0.312941 -0.459174 -0.798262 -0.232391 1.5 0.5 0.5 
648 1 5.59437 0.824753 6.79372 0.0607084 0.90866 -0.252796 -0.32672 1.5 0.5 0.5 
475 1 5.76493 2.3183 6.67162 -0.777034 -0.377224 -0.196681 0.463937 1.5 0.5 0.5 
416 1 7.12533 5.21278 5.6079 0.879271 0.0103393 0.352494 -0.320194 1.5 0.5 0.5 
495 1 1.60846 1.36475 7.17098 0.578271 0.671899 -0.0713892 -0.457228 1.5 0.5 0.5 
441 1 7.22443 6.49908 5.47989 0.411519 0.34449 -0.198764 0.820044 1.5 0.5 0.5 
895 1 1.92454 2.46533 6.7847 0.747043 0.442041 0.247609 -0.430368 1.5 0.5 0.5 
117 1 0.662235 3.66681 5.19672 -0.375096 0.798632 -0.459703 -0.100809 1.5 0.5 0.5 
128 1 1.24543 3.11252 6.03943 0.369877 -0.268122 -0.884505 0.0946149 1.5 0.5 0.5 
254 1 1.49059 3.95686 5.89146 -0.0247387 -0.48549 -0.480949 -0.72964 1.5 0.5 0.5 
834 1 0.720338 4.98553 5.29312 0.1266 -0.408616 -0.884846 -0.184532 1.5 0.5 0.5 
408 1 3.31238 7.02038 6.02315 -0.576034 0.22162 0.774198 -0.140312 1.5 0.5 0.5 
643 1 0.364264 4.9563 0.845069 0.205097 0.37545 0.365743 0.826562 1.5 0.5 0.5 
813 1 2.1978 3.57504 6.67652 0.824319 0.275631 0.244626 -0.429749 1.5 0.5 0.5 
926 1 2.6046 4.77311 6.61341 -0.0947416 0.883954 -0.311084 -0.33597 1.5 0.5 0.5 
945 1 7.29676 4.23802 2.98453 0.713452 0.443166 0.171123 -0.51508 1.5 0.5 0.5 
613 1 4.47468 7.26014 6.39521 0.421064 -0.179552 -0.833261 0.310067 1.5 0.5 0.5 
580 1 6.56465 2.57096 7.22349 0.383586 0.82579 -0.0314322 -0.412243 1.5 0.5 0.5 
17 1 6.13478 3.47901 6.53251 -0.467445 -0.237855 0.358823 -0.772118 1.5 0.5 0.5 
410 1 5.18667 2.61811 5.64462 -0.0610227 -0.453311 -0.469892 -0.754975 1.5 0.5 0.5 
735 1 6.59223 4.45045 6.04809 0.329712 -0.76309 0.491392 0.259841 1.5 0.5 0.5 
315 1 5.55698 3.75796 5.68767 0.378163 -0.217255 -0.889852 0.134001 1.5 0.5 0.5 
52 1 1.2056 6.07793 5.02335 0.399478 0.246034 -0.303577 0.829292 1.5 0.5 0.5 
341 1 2.17186 6.34089 5.41171 -0.416331 -0.282612 0.368535 -0.781653 1.5 0.5 0.5 
32 1 1.84844 5.17581 5.83987 0.300455 0.798458 -0.283742 -0.437816 1.5 0.5 0.5 
791 1 3.01868 5.68223 5.97231 -0.0253242 0.476238 0.498827 0.72369 1.5 0.5 0.5 
115 1 6.99342 0.754651 0.723222 0.248947 0.350891 -0.316401 0.845453 1.5 0.5 0.5 
30 1 6.23466 1.58215 0.0467021 0.0614183 0.434669 0.4368 0.785173 1.5 0.5 0.5 
822 1 0.177784 4.27253 4.41296 -0.279697 0.823598 -0.456368 -0.187575 1.5 0.5 0.5 
502 1 4.04981 4.82906 0.460226 -0.0443081 -0.429466 -0.319462 -0.843528 1.5 0.5 0.5 
656 1 7.25623 5.83292 1.6385 -0.814685 -0.211487 -0.377998 0.38559 1.5 0.5 0.5 
525 1 1.31707 0.224837 0.0620538 -0.298066 -0.810252 0.118312 0.490562 1.5 0.5 0.5 
918 1 2.28288 0.718292 7.90167 -0.118533 0.535819 0.574631 0.607163 1.5 0.5 0.5 
217 1 5.12464 6.663 14.2498 0.173647 0.305814 0.122903 0.928019 1.5 0.5 0.5 
756 1 -0.0457541 5.3776 8.3926 -0.0435702 -0.587773 -0.606361 -0.533808 1.5 0.5 0.5 
932 1 2.73933 3.22079 7.66257 0.532415 -0.110597 -0.812909 0.208522 1.5 0.5 0.5 
262 1 3.28998 0.956097 8.35336 0.260254 -0.455345 -0.746898 -0.408743 1.5 0.5 0.5 
833 1 4.00604 1.69831 8.94604 -0.0848406 0.834109 -0.380323 -0.390408 1.5 0.5 0.5 
28 1 4.08768 0.449041 9.14857 -0.86183 -0.0500935 -0.299809 0.406023 1.5 0.5 0.5 
358 1 7.09092 4.26197 10.3537 -0.762487 -0.358884 -0.265344 0.468409 1.5 0.5 0.5 
272 1 3.31018 2.53469 8.38423 0.579383 0.577111 0.0764195 -0.570455 1.5 0.5 0.5 
2 1 5.07432 2.09017 9.33588 -0.293167 -0.339386 0.0620835 -0.891637 1.5 0.5 0.5 
958 1 7.32233 2.66753 11.6741 -0.329835 0.350334 0.868491 0.11916 1.5 0.5 0.5 
104 1 7.1754 0.845191 8.09904 -0.416891 0.100143 0.786831 -0.443925 1.5 0.5 0.5 
615 1 6.54827 3.26287 10.8155 -0.335083 -0.358621 0.159399 -0.856564 1.5 0.5 0.5 
605 1 0.898834 4.57958 9.05446 -0.45589 0.0769676 0.622615 -0.63134 1.5 0.5 0.5 
306 1 0.432558 3.43211 9.59015 0.431759 -0.221289 -0.87107 0.0765056 1.5 0.5 0.5 
451 1 1.6689 5.21158 9.50334 0.00922594 0.857975 -0.259322 -0.443334 1.5 0.5 0.5 
354 1 1.32567 3.917 9.81849 0.511332 0.0386262 -0.508672 0.691593 1.5 0.5 0.5 
6 1 3.1756 7.09227 13.4866 -0.767242 0.487922 -0.415743 0.0207329 1.5 0.5 0.5 
164 1 4.23853 2.93799 8.76704 0.810816 0.146299 0.331988 -0.459301 1.5 0.5 0.5 
349 1 3.84746 3.45946 7.76526 0.786733 0.0749604 0.498217 -0.356667 1.5 0.5 0.5 
205 1 4.73697 4.09167 8.54261 -0.831533 0.29664 -0.464456 0.0695601 1.5 0.5 0.5 
687 1 5.19082 3.37743 9.3483 0.108693 0.876591 -0.245307 -0.399498 1.5 0.5 0.5 
876 1 5.49459 4.57182 9.13128 0.0402266 0.536943 0.442021 0.71742 1.5 0.5 0.5 
342 1 5.84617 2.85496 9.93078 -0.301416 -0.404821 -0.10717 -0.856611 1.5 0.5 0.5 
391 1 1.1348 5.57312 8.48829 -0.433833 0.322703 0.839839 -0.048197 1.5 0.5 0.5 
619 1 1.39405 6.69994 8.36763 0.165354 0.813528 -0.19844 -0.521011 1.5 0.5 0.5 
289 1 2.16971 6.06729 9.10661 -0.465805 -0.222263 0.458257 -0.72362 1.5 0.5 0.5 
682 1 0.53998 6.14205 7.73725 0.557961 -0.130818 -0.72971 0.372947 1.5 0.5 0.5 
347 1 1.41142 0.100668 7.45926 0.828848 -0.290823 0.440821 -0.184686 1.5 0.5 0.5 
435 1 0.116694 1.74863 13.2942 -0.165269 -0.511053 -0.303553 -0.786999 1.5 0.5 0.5 
447 1 3.11849 6.74181 10.1 -0.323967 0.397555 0.839684 0.178679 1.5 0.5 0.5 
598 1 6.97477 5.99679 9.22936 0.0370668 0.463721 0.270475 0.842872 1.5 0.5 0.5 
195 1 2.8852 5.55122 9.9084 0.417098 0.0840144 -0.593328 0.683325 1.5 0.5 0.5 
224 1 3.63012 0.0361348 12.8833 0.799486 -0.298142 0.516412 -0.0724745 1.5 0.5 0.5 
39 1 4.9439 5.36058 8.62558 0.644519 0.580743 0.112726 -0.484382 1.5 0.5 0.5 
385 1 6.66659 4.9335 9.59355 0.45031 0.138732 -0.551925 0.688007 1.5 0.5 0.5 
386 1 6.31658 5.31774 8.48633 -0.635899 -0.564791 -0.191554 0.489848 1.5 0.5 0.5 
969 1 6.45989 6.78034 8.67992 -0.340169 0.335034 0.870345 0.120571 1.5 0.5 0.5 
641 1 5.67339 6.24664 8.02606 0.0205005 -0.439806 -0.456276 -0.77328 1.5 0.5 0.5 
810 1 3.20805 4.07253 14.3097 -0.800305 0.0194884 -0.542899 0.253758 1.5 0.5 0.5 
419 1 4.11127 4.69449 7.6966 0.531322 0.265765 -0.300445 0.74619 1.5 0.5 0.5 
150 1 1.61143 1.26093 14.5832 -0.314054 0.807657 -0.407035 -0.288759 1.5 0.5 0.5 
305 1 0.896022 1.53393 10.2171 0.0202908 -0.47111 -0.536584 -0.6998 1.5 0.5 0.5 
432 1 1.5105 0.827345 10.9031 0.672449 0.584338 0.0341914 -0.452982 1.5 0.5 0.5 
290 1 1.76469 1.95128 10.6739 -0.0221874 -0.459605 -0.555555 -0.692553 1.5 0.5 0.5 
3 1 2.58298 1.31512 11.2866 -0.471618 0.108902 0.825141 -0.291305 1.5 0.5 0.5 
801 1 7.38221 6.66781 12.723 0.557164 0.627925 0.1583 -0.519826 1.5 0.5 0.5 
937 1 4.82629 1.07236 9.7562 0.146149 0.396851 0.19394 0.885176 1.5 0.5 0.5 
353 1 3.39119 1.73735 11.9203 0.476239 0.0863349 -0.631438 0.605829 1.5 0.5 0.5 
541 1 2.80923 2.35767 11.142 -0.148558 -0.858903 0.190573 0.451552 1.5 0.5 0.5 
938 1 5.56838 0.262685 10.3096 0.362079 0.310943 -0.153641 0.865221 1.5 0.5 0.5 
225 1 5.66512 1.60831 10.1813 0.869356 0.209632 0.19192 -0.404279 1.5 0.5 0.5 
826 1 6.48252 0.857026 10.8849 -0.347102 0.205647 0.907755 -0.114935 1.5 0.5 0.5 
248 1 6.38557 2.15569 10.934 -0.151824 -0.297207 -0.316642 -0.887894 1.5 0.5 0.5 
226 1 1.93353 0.386699 12.096 -0.274946 0.41795 0.798612 0.334575 1.5 0.5 0.5 
866 1 6.6714 0.465285 12.0344 0.0444314 0.885713 -0.173551 -0.428274 1.5 0.5 0.5 
295 1 3.96943 6.5635 14.0098 -0.253021 0.353972 0.880687 0.187281 1.5 0.5 0.5 
673 1 1.23692 2.61009 9.85022 0.304486 0.45534 -0.0598015 0.834492 1.5 0.5 0.5 
823 1 2.34467 2.73554 10.181 -0.483978 -0.0690749 0.505359 -0.71106 1.5 0.5 0.5 
317 1 2.40181 4.38438 9.73688 -0.591531 -0.601723 -0.228513 0.485595 1.5 0.5 0.5 
330 1 2.55915 3.86124 11.0294 -0.120095 0.875752 -0.186618 -0.42873 1.5 0.5 0.5 
403 1 3.74853 4.01392 11.2716 0.215367 -0.890736 0.355641 0.183647 1.5 0.5 0.5 
688 1 3.08654 4.80717 10.6641 0.874314 0.162282 0.312482 -0.334059 1.5 0.5 0.5 
293 1 3.77796 2.97581 11.8119 0.121538 -0.475725 -0.543458 -0.680858 1.5 0.5 0.5 
501 1 4.51203 3.67472 12.4926 -0.0555129 0.510064 0.501818 0.69637 1.5 0.5 0.5 
845 1 2.92062 3.05084 14.6943 0.30663 0.763827 -0.0606258 -0.564686 1.5 0.5 0.5 
742 1 6.23039 3.87966 9.71157 -0.0609142 -0.603622 -0.495226 -0.621837 1.5 0.5 0.5 
707 1 4.99319 4.60872 11.9818 0.222554 0.428792 -0.0558766 0.873776 1.5 0.5 0.5 
144 1 2.60373 7.12788 8.97402 -0.0265804 0.839278 -0.328269 -0.432603 1.5 0.5 0.5 
532 1 3.54186 5.27372 14.3354 -0.399938 -0.0636613 0.753311 -0.518188 1.5 0.5 0.5 
669 1 0.234973 5.62651 11.7305 0.241239 0.856874 -0.120735 -0.439311 1.5 0.5 0.5 
269 1 0.634957 6.94532 11.7186 -0.392691 -0.819027 0.0525596 0.415001 1.5 0.5 0.5 
954 1 7.4284 1.93223 7.83188 0.458176 -0.236174 -0.850858 0.101677 1.5 0.5 0.5 
776 1 4.43579 5.10771 11.2004 -0.128484 -0.453696 -0.238185 -0.84907 1.5 0.5 0.5 
758 1 4.25325 7.01966 10.5108 -0.350183 -0.411311 -0.042292 -0.84048 1.5 0.5 0.5 
890 1 3.81485 5.84487 10.4629 -0.414979 -0.317331 0.199745 -0.828972 1.5 0.5 0.5 
593 1 4.66609 6.25052 11.0984 0.291983 0.397676 -0.0442316 0.868702 1.5 0.5 0.5 
793 1 6.44195 6.13006 12.2559 -0.393175 -0.829719 0.0352986 0.394631 1.5 0.5 0.5 
88 1 5.97629 6.60001 11.3123 -0.462555 -0.222264 0.29316 -0.806659 1.5 0.5 0.5 
175 1 5.1973 5.62968 11.8624 -0.262519 -0.353681 0.106984 -0.891374 1.5 0.5 0.5 
124 1 0.613872 0.253036 10.16 -0.0682159 -0.482328 -0.29518 -0.821934 1.5 0.5 0.5 
157 1 0.139509 6.64585 14.5871 -0.444092 -0.00597876 0.796999 -0.409314 1.5 0.5 0.5 
965 1 0.492917 1.03471 14.2029 -0.466979 0.113954 0.843776 -0.23872 1.5 0.5 0.5 
802 1 0.805949 2.38665 14.0131 -0.173654 0.472439 0.78584 0.359305 1.5 0.5 0.5 
230 1 2.94072 0.804555 12.3406 0.499561 0.0864103 -0.704329 0.496883 1.5 0.5 0.5 
759 1 4.11827 1.12481 12.5878 0.502599 -0.0852105 -0.79198 0.336006 1.5 0.5 0.5 
127 1 4.59097 0.549281 13.296 0.229483 0.814015 -0.13886 -0.515204 1.5 0.5 0.5 
933 1 7.05023 1.55014 11.7148 -0.752471 -0.457532 -0.196109 0.431269 1.5 0.5 0.5 
203 1 0.634018 2.71548 12.746 0.513016 0.0921674 -0.566526 0.638254 1.5 0.5 0.5 
782 1 4.67047 1.82895 13.6257 -0.104877 0.846139 -0.305094 -0.424226 1.5 0.5 0.5 
572 1 5.75949 2.23174 13.9286 0.505994 -0.140395 -0.796938 0.298577 1.5 0.5 0.5 
830 1 5.02413 1.43969 14.5059 0.334351 0.801533 -0.200028 -0.453589 1.5 0.5 0.5 
737 1 6.89209 7.19072 11.763 0.442384 -0.281842 -0.851286 0.0131924 1.5 0.5 0.5 
19 1 1.80771 2.48303 14.4203 -0.36713 0.783355 -0.455732 -0.20947 1.5 0.5 0.5 
359 1 0.812486 4.11423 12.6394 -0.469223 0.277182 0.833203 -0.0936613 1.5 0.5 0.5 
401 1 1.63163 4.5451 13.3744 -0.434687 0.244985 0.866512 -0.0136507 1.5 0.5 0.5 
446 1 1.26658 3.3343 13.7125 -0.227046 0.449216 0.721869 0.474933 1.5 0.5 0.5 
526 1 2.299 3.53254 13.8653 -0.847676 0.105703 -0.457149 0.247562 1.5 0.5 0.5 
399 1 6.48356 0.23771 14.6272 -0.223863 -0.880649 0.124408 0.398579 1.5 0.5 0.5 
431 1 7.12211 5.34652 12.7716 -0.0892106 -0.410074 -0.113043 -0.900612 1.5 0.5 0.5 
922 1 4.35238 2.40908 12.5515 0.871075 0.244259 0.275847 -0.324768 1.5 0.5 0.5 
79 1 2.69087 4.72373 13.6598 -0.387051 0.319148 0.85956 0.0974257 1.5 0.5 0.5 
491 1 6.59395 4.36591 13.4067 0.233792 -0.360818 -0.842927 -0.323458 1.5 0.5 0.5 
677 1 5.5244 4.0785 12.9189 -0.0715623 -0.921909 0.100161 0.367328 1.5 0.5 0.5 
667 1 3.07223 5.76582 13.4051 0.0294926 0.494281 0.464587 0.734149 1.5 0.5 0.5 
602 1 5.30282 2.8887 12.95 -0.599942 0.62575 -0.476417 -0.14674 1.5 0.5 0.5 
638 1 6.0711 3.46159 13.8075 -0.345354 -0.217815 0.223208 -0.885136 1.5 0.5 0.5 
884 1 6.66668 2.81448 14.4869 -0.00957746 0.533873 0.58181 0.613502 1.5 0.5 0.5 
943 1 2.02579 5.73707 13.0331 0.530819 -0.158564 -0.763979 0.330794 1.5 0.5 0.5 
89 1 1.17254 5.15355 12.432 0.415674 -0.339517 -0.790834 -0.294151 1.5 0.5 0.5 
421 1 1.35359 6.22158 12.1967 0.612193 0.0852815 -0.67293 0.40634 1.5 0.5 0.5 
872 1 2.3511 6.70797 12.6107 -0.738329 -0.431165 -0.218726 0.470241 1.5 0.5 0.5 
745 1 5.83819 5.23208 12.7688 0.262645 -0.841477 0.340872 0.326712 1.5 0.5 0.5 
184 1 6.03638 7.24677 7.63139 0.413494 -0.219908 -0.881236 0.0639202 1.5 0.5 0.5 
522 1 7.05099 3.92214 14.3084 0.179623 0.85853 -0.169607 -0.449327 1.5 0.5 0.5 
799 1 0.0667029 2.40156 9.61777 -0.0878901 0.48997 0.728422 0.470751 1.5 0.5 0.5 
921 1 1.71475 7.39666 12.0655 0.515283 0.234474 -0.55061 0.613461 1.5 0.5 0.5 
367 1 6.17206 0.342144 7.66342 0.241253 0.4468 0.118369 0.85332 1.5 0.5 0.5 
821 1 0.844595 7.2476 7.58944 0.711685 0.447723 0.154582 -0.5188 1.5 0.5 0.5 
731 1 5.07648 0.20433 14.584 0.81806 -0.154885 0.550315 -0.0627771 1.5 0.5 0.5 
499 1 6.16737 1.4878 7.52825 0.170055 -0.92189 0.317097 0.143697 1.5 0.5 0.5 
125 1 2.97279 0.0530088 8.99159 -0.493552 0.693205 -0.496837 -0.170372 1.5 0.5 0.5 
185 1 2.71745 1.69455 7.6197 0.086489 0.48549 0.407869 0.768415 1.5 0.5 0.5 
817 1 4.67919 5.81347 7.43664 0.858464 -0.0500863 0.436961 -0.263811 1.5 0.5 0.5 
885 1 0.125436 4.66092 12.1044 -0.845031 0.18229 -0.45729 0.208758 1.5 0.5 0.5 
755 1 4.52238 7.4593 13.5325 0.824965 -0.319178 0.454623 -0.10429 1.5 0.5 0.5 
807 1 7.2399 8.6914 0.46132 0.700341 -0.416251 0.550553 -0.182068 1.5 0.5 0.5 
566 1 2.73903 8.27793 1.54353 -0.387386 -0.333795 0.268295 -0.816413 1.5 0.5 0.5 
609 1 3.86454 8.61236 1.81147 0.715127 -0.468209 0.515822 -0.0574503 1.5 0.5 0.5 
468 1 3.2383 9.192 0.902364 0.238953 0.474445 0.0770439 0.843723 1.5 0.5 0.5 
444 1 4.94161 8.93662 2.11479 -0.822001 0.308556 -0.361576 0.313639 1.5 0.5 0.5 
31 1 4.27837 9.66623 1.48683 -0.383582 0.291132 0.876374 -0.00867733 1.5 0.5 0.5 
109 1 2.27283 8.6904 0.406763 -0.0935509 -0.462997 -0.230033 -0.850862 1.5 0.5 0.5 
210 1 5.69937 14.6587 4.10331 0.0950319 0.464875 0.457941 0.751765 1.5 0.5 0.5 
584 1 6.07018 7.73091 4.02343 -0.371898 0.26877 0.779125 0.427106 1.5 0.5 0.5 
158 1 3.41412 7.64799 2.03867 0.0285709 -0.522435 -0.536702 -0.661964 1.5 0.5 0.5 
327 1 0.61021 11.3781 1.88605 0.89059 -0.00138529 0.370436 -0.263864 1.5 0.5 0.5 
381 1 1.73809 11.6641 2.16534 -0.293749 -0.417655 -0.0733219 -0.856679 1.5 0.5 0.5 
265 1 1.45794 10.4297 2.37649 0.231217 0.431316 0.228812 0.841517 1.5 0.5 0.5 
689 1 0.47423 10.7856 5.47556 0.198371 0.549108 0.100523 0.80562 1.5 0.5 0.5 
831 1 3.56233 10.2288 0.74781 -0.0836311 0.859174 -0.29786 -0.407561 1.5 0.5 0.5 
567 1 2.11922 7.56032 0.633644 0.509613 -0.0942137 -0.760076 0.39205 1.5 0.5 0.5 
666 1 6.82015 7.58426 1.03624 -0.267048 -0.856727 0.0910648 0.431755 1.5 0.5 0.5 
364 1 5.69046 14.1804 0.533529 -0.520999 0.221216 0.820899 -0.0758087 1.5 0.5 0.5 
606 1 4.70591 10.666 1.00619 0.169887 0.380315 0.265989 0.869338 1.5 0.5 0.5 
120 1 4.88395 11.9919 0.893157 -0.131279 0.86035 -0.342359 -0.354054 1.5 0.5 0.5 
809 1 5.11112 10.1644 1.96475 -0.284617 0.316571 0.902759 -0.0616641 1.5 0.5 0.5 
839 1 5.48771 11.208 1.57466 -0.264125 -0.342469 0.133176 -0.89175 1.5 0.5 0.5 
204 1 6.44853 11.6754 2.19274 0.117977 0.392639 0.467568 0.783133 1.5 0.5 0.5 
929 1 5.98488 12.1386 1.21516 0.398054 -0.82123 0.370749 0.172278 1.5 0.5 0.5 
219 1 6.08852 8.44239 0.331892 -0.244385 0.560163 0.568643 0.550581 1.5 0.5 0.5 
51 1 1.02189 12.472 1.5665 -0.169074 -0.314805 -0.064795 -0.931726 1.5 0.5 0.5 
563 1 1.16708 13.5576 1.40209 0.323396 -0.0891635 -0.892773 0.300701 1.5 0.5 0.5 
747 1 1.93251 12.8816 2.27043 0.391858 -0.169449 -0.889048 0.16531 1.5 0.5 0.5 
112 1 2.45871 13.8434 1.69574 -0.618986 -0.629635 -0.143658 0.446966 1.5 0.5 0.5 
486 1 0.350516 13.0635 0.618087 -0.857827 0.397988 -0.29497 0.136862 1.5 0.5 0.5 
463 1 4.70128 13.5382 7.41695 0.759389 0.383902 0.305427 -0.427389 1.5 0.5 0.5 
429 1 3.50319 14.2512 2.11194 -0.172213 0.5058 0.681203 0.500471 1.5 0.5 0.5 
10 1 3.00454 13.2298 2.58863 -0.438231 -0.0702409 0.497357 -0.745423 1.5 0.5 0.5 
935 1 0.0691193 9.33019 5.56188 -0.423786 0.191008 0.882162 -0.0755699 1.5 0.5 0.5 
520 1 7.04722 13.3718 5.8112 0.136143 0.88336 -0.189814 -0.406337 1.5 0.5 0.5 
971 1 6.86403 12.613 1.85975 0.719351 -0.50616 0.473336 0.0478477 1.5 0.5 0.5 
384 1 3.86762 13.0609 6.7915 0.356421 -0.748529 0.47524 0.294646 1.5 0.5 0.5 
925 1 2.88238 7.7592 4.98869 0.0655747 -0.489684 -0.593136 -0.635688 1.5 0.5 0.5 
804 1 1.29264 8.38583 0.0535622 -0.717124 -0.494488 -0.164217 0.462869 1.5 0.5 0.5 
816 1 5.20508 12.9612 0.669885 0.690179 0.517253 0.0991296 -0.496261 1.5 0.5 0.5 
815 1 6.18553 13.2899 1.23092 0.112992 0.512222 0.209952 0.825095 1.5 0.5 0.5 
905 1 1.37407 7.58915 3.80868 0.693033 0.488502 0.320359 -0.422423 1.5 0.5 0.5 
131 1 0.9831 9.42936 2.65849 0.745798 -0.446211 0.494124 -0.0228416 1.5 0.5 0.5 
792 1 0.592697 8.43072 2.84815 0.463116 -0.215908 -0.831666 0.217345 1.5 0.5 0.5 
490 1 1.43508 8.72175 3.52731 -0.235572 -0.437702 -0.218434 -0.839767 1.5 0.5 0.5 
903 1 2.19092 8.27537 4.32511 -0.235498 0.374383 0.792381 0.420132 1.5 0.5 0.5 
920 1 2.435 9.56846 4.17143 0.198833 -0.495246 -0.546454 -0.645434 1.5 0.5 0.5 
440 1 4.58286 7.72114 2.3192 0.293221 0.362541 -0.206916 0.8601 1.5 0.5 0.5 
616 1 2.94433 8.93442 4.9018 0.152877 -0.472656 -0.68609 -0.531513 1.5 0.5 0.5 
459 1 3.55854 9.74104 4.20243 -0.812542 0.282325 -0.494596 0.12427 1.5 0.5 0.5 
424 1 2.4926 14.3477 5.15689 0.479334 -0.148093 -0.820329 0.274532 1.5 0.5 0.5 
161 1 7.27478 13.6178 1.37371 0.266213 0.830508 -0.0695667 -0.4843 1.5 0.5 0.5 
308 1 5.61419 9.67624 2.82382 -0.0431907 -0.478979 -0.674244 -0.560455 1.5 0.5 0.5 
378 1 5.26455 8.41404 2.97756 -0.544292 -0.660008 0.083144 0.511099 1.5 0.5 0.5 
390 1 6.35034 8.75865 3.36695 0.801085 0.365893 0.280844 -0.381459 1.5 0.5 0.5 
314 1 6.74934 9.26304 6.49512 -0.834063 0.126691 -0.513138 0.158044 1.5 0.5 0.5 
123 1 3.83503 11.366 0.451776 -0.572313 -0.688535 0.0855484 0.437103 1.5 0.5 0.5 
11 1 1.73738 10.0033 3.45091 0.318305 0.428215 0.0439817 0.844618 1.5 0.5 0.5 
774 1 2.11113 11.0265 3.08587 0.179492 -0.862313 0.402686 0.249084 1.5 0.5 0.5 
188 1 2.68239 12.1222 2.77111 0.450733 0.152295 -0.495569 0.726676 1.5 0.5 0.5 
352 1 2.7543 10.5246 3.82652 0.348012 -0.403861 -0.791447 -0.298989 1.5 0.5 0.5 
423 1 3.20052 11.5388 3.47883 -0.449744 -0.10977 0.716502 -0.52183 1.5 0.5 0.5 
671 1 3.88705 10.9032 4.35346 -0.37713 -0.768545 0.114332 0.504023 1.5 0.5 0.5 
693 1 4.13134 11.9862 4.12406 -0.883843 -0.0180821 -0.366575 0.290029 1.5 0.5 0.5 
36 1 5.07197 11.364 4.56846 0.822421 -0.292358 0.485832 -0.046027 1.5 0.5 0.5 
585 1 5.9911 10.6838 2.45898 -0.425464 0.219341 0.85917 -0.180823 1.5 0.5 0.5 
972 1 6.74487 9.76042 3.13376 0.369758 -0.2237 -0.890541 0.142035 1.5 0.5 0.5 
392 1 0.157543 14.5827 7.0657 0.690865 -0.571781 0.441757 0.024978 1.5 0.5 0.5 
276 1 1.40649 14.0006 4.85628 -0.558597 0.041913 0.700518 -0.44214 1.5 0.5 0.5 
855 1 0.47531 13.4902 4.24752 0.855753 0.0572897 0.365529 -0.361654 1.5 0.5 0.5 
916 1 1.1382 12.8045 5.02535 0.418784 0.307291 -0.339825 0.784035 1.5 0.5 0.5 
240 1 6.67904 14.4994 1.01197 -0.276003 -0.242749 0.289103 -0.88392 1.5 0.5 0.5 
72 1 3.41213 12.7005 3.39918 -0.901646 0.00929869 -0.29987 0.31149 1.5 0.5 0.5 
586 1 3.96571 13.646 2.95313 0.662376 0.527279 0.0793437 -0.52625 1.5 0.5 0.5 
319 1 4.33419 13.1164 3.81019 0.139896 0.504789 0.37853 0.763107 1.5 0.5 0.5 
683 1 7.15583 10.2438 6.45048 0.190086 -0.909568 0.246318 0.275465 1.5 0.5 0.5 
244 1 3.44447 12.0477 7.08764 -0.00727806 -0.539857 -0.397303 -0.742059 1.5 0.5 0.5 
650 1 5.01643 14.0903 3.47315 -0.430865 -0.0745604 0.61697 -0.654327 1.5 0.5 0.5 
151 1 5.25886 12.3896 4.27533 -0.467404 0.354925 0.791666 0.169787 1.5 0.5 0.5 
181 1 6.52219 13.9544 4.71027 -0.17457 -0.465875 -0.290451 -0.817388 1.5 0.5 0.5 
63 1 5.94689 13.0672 3.81478 0.737952 0.486536 0.0884821 -0.459218 1.5 0.5 0.5 
35 1 6.18139 8.49835 7.28835 0.848035 0.0484351 0.404533 -0.338886 1.5 0.5 0.5 
7 1 0.687511 14.1217 0.342127 0.875397 -0.165344 0.366758 -0.268012 1.5 0.5 0.5 
152 1 0.267145 7.8671 6.8268 -0.679991 0.464349 -0.56723 -0.0155798 1.5 0.5 0.5 
361 1 0.661455 9.02621 6.52532 -0.0356567 0.556244 0.503084 0.660475 1.5 0.5 0.5 
267 1 0.284748 7.36458 3.22238 0.312523 0.376674 -0.0936255 0.866995 1.5 0.5 0.5 
685 1 3.9344 9.23623 5.42894 -0.684022 -0.601318 -0.135866 0.389964 1.5 0.5 0.5 
939 1 3.82189 8.02972 5.47367 -0.104603 0.446132 0.606261 0.649978 1.5 0.5 0.5 
720 1 4.48721 8.47265 6.26279 -0.25712 -0.374787 -0.0946056 -0.885705 1.5 0.5 0.5 
588 1 4.93994 9.59066 5.85048 -0.426536 -0.0265091 0.736484 -0.524362 1.5 0.5 0.5 
178 1 1.71634 14.6052 1.22835 -0.554332 0.667184 -0.489413 -0.0897609 1.5 0.5 0.5 
422 1 5.48394 7.72318 6.59249 0.418594 0.311099 -0.36728 0.770131 1.5 0.5 0.5 
129 1 5.34042 9.18884 6.8264 0.574757 0.658696 0.157129 -0.45944 1.5 0.5 0.5 
132 1 1.04572 10.1253 6.36182 -0.446451 0.748046 -0.466051 -0.154613 1.5 0.5 0.5 
40 1 0.0389729 14.1528 3.38146 0.650754 -0.590988 0.4765 0.0141665 1.5 0.5 0.5 
850 1 0.709753 11.8954 5.57225 0.427132 0.114839 -0.528149 0.724865 1.5 0.5 0.5 
798 1 1.435 11.1392 6.04796 -0.545556 -0.0116277 0.672056 -0.500574 1.5 0.5 0.5 
695 1 2.40467 11.6817 6.67802 0.47305 -0.153063 -0.864637 0.0721054 1.5 0.5 0.5 
917 1 2.12874 10.6046 6.96269 -0.578657 -0.682004 -0.0452847 0.444946 1.5 0.5 0.5 
947 1 1.63248 12.2173 5.96176 -0.656941 -0.615544 -0.0964812 0.424529 1.5 0.5 0.5 
374 1 4.4966 14.1264 6.4445 -0.180685 -0.44955 -0.0193384 -0.874576 1.5 0.5 0.5 
701 1 4.5253 10.2025 5.09187 -0.285718 0.341284 0.844436 0.298024 1.5 0.5 0.5 
318 1 6.96923 11.978 5.61347 0.32012 -0.808846 0.433758 0.234828 1.5 0.5 0.5 
660 1 5.77735 11.8408 5.54089 0.212445 -0.458262 -0.747945 -0.43063 1.5 0.5 0.5 
797 1 4.475 14.1188 0.16957 0.688778 -0.54887 0.466895 0.0795995 1.5 0.5 0.5 
335 1 5.78962 10.1764 6.30544 0.190125 -0.835553 0.371944 0.356878 1.5 0.5 0.5 
753 1 6.39732 10.9591 6.10864 -0.694192 -0.553071 -0.11781 0.445343 1.5 0.5 0.5 
621 1 5.20198 10.9323 5.64232 0.306334 0.828251 -0.126817 -0.451748 1.5 0.5 0.5 
788 1 6.38102 12.7505 4.93591 0.523339 -0.0422249 -0.773069 0.355947 1.5 0.5 0.5 
649 1 0.376169 10.2135 1.96859 -0.449276 -0.735678 0.0702229 0.501994 1.5 0.5 0.5 
313 1 2.24504 13.1824 5.24108 -0.809437 -0.283064 -0.28732 0.426772 1.5 0.5 0.5 
820 1 1.84873 9.34862 7.06027 -0.46039 -0.0677116 0.631273 -0.620444 1.5 0.5 0.5 
739 1 3.13317 12.4729 5.97111 0.273444 0.316144 -0.103423 0.902544 1.5 0.5 0.5 
411 1 3.12869 13.6645 5.80774 0.550551 0.260118 -0.464376 0.643107 1.5 0.5 0.5 
645 1 6.94417 11.0242 3.14702 0.57221 -0.714475 0.370967 0.156473 1.5 0.5 0.5 
118 1 3.49415 14.7815 5.69076 -0.445068 0.188536 0.849159 -0.212831 1.5 0.5 0.5 
121 1 2.46803 9.85089 0.443201 0.823946 -0.27946 0.473625 -0.136728 1.5 0.5 0.5 
221 1 5.42968 14.6036 6.8585 0.860119 -0.0554345 0.446161 -0.24096 1.5 0.5 0.5 
215 1 7.28937 9.37339 4.12174 0.278032 -0.358147 -0.873764 -0.175971 1.5 0.5 0.5 
196 1 -0.00312806 12.0836 0.986556 -0.860314 -0.197633 -0.360938 0.300874 1.5 0.5 0.5 
560 1 7.02998 8.25902 4.40718 -0.513172 -0.699659 -0.153767 0.472745 1.5 0.5 0.5 