ITEM: TIMESTEP
2000000
ITEM: NUMBER OF ATOMS
972
ITEM: BOX BOUNDS pp pp pp
0.0000000000000000e+00 1.4797272000000000e+01
0.0000000000000000e+00 1.4797272000000000e+01
0.0000000000000000e+00 1.4797272000000000e+01
ITEM: ATOMS id type x y z c_orient[1] c_orient[2] c_orient[3] c_orient[4] c_shape[1] c_shape[2] c_shape[3] 
139 1 6.72968 5.79421 5.63408 -0.277756 -0.226387 0.666754 0.653483 1.5 0.5 0.5 
258 1 3.24297 3.1562 0.308167 0.62798 0.724678 0.200083 0.201122 1.5 0.5 0.5 
254 1 5.69162 7.02353 1.94153 -0.420159 0.0670652 -0.135722 0.894734 1.5 0.5 0.5 
861 1 5.23767 0.933881 6.0437 -0.447616 -0.757716 -0.407583 -0.243685 1.5 0.5 0.5 
574 1 6.29408 2.38363 3.72111 -0.677793 0.562392 0.118787 -0.458478 1.5 0.5 0.5 
108 1 6.23681 2.27329 0.864252 0.511682 0.1706 -0.487776 -0.686406 1.5 0.5 0.5 
831 1 1.9044 6.87578 2.76508 -0.790931 0.49877 0.118475 -0.334096 1.5 0.5 0.5 
238 1 5.88809 3.15895 2.73881 0.25013 0.251047 -0.735154 -0.577892 1.5 0.5 0.5 
811 1 4.17226 6.1542 0.341489 0.341492 -0.0833825 -0.101847 -0.930622 1.5 0.5 0.5 
393 1 3.67702 6.0024 3.69312 0.206535 -0.286582 0.842031 -0.407673 1.5 0.5 0.5 
48 1 6.43573 0.265405 2.80809 -0.388903 -0.395902 0.822541 0.124269 1.5 0.5 0.5 
305 1 5.92853 6.96325 0.906656 -0.278711 0.32465 -0.652947 0.624967 1.5 0.5 0.5 
349 1 0.649904 5.20547 5.4964 0.13615 -0.43056 0.809841 -0.374484 1.5 0.5 0.5 
577 1 1.65691 4.18 0.899576 -0.701567 0.669566 0.143663 -0.197094 1.5 0.5 0.5 
37 1 0.77377 3.46232 5.40315 -0.528407 0.658254 0.435897 -0.312221 1.5 0.5 0.5 
200 1 0.434914 3.98072 4.07235 -0.345563 -0.892101 -0.181128 -0.227892 1.5 0.5 0.5 
66 1 2.07723 3.23525 1.09879 0.28602 0.12689 -0.476746 -0.821465 1.5 0.5 0.5 
479 1 1.40509 3.70976 2.00363 -0.279303 0.869065 0.376371 -0.158307 1.5 0.5 0.5 
521 1 5.9335 4.36533 1.67195 -0.811835 0.466929 0.115416 -0.331029 1.5 0.5 0.5 
457 1 5.66975 0.493504 1.79964 0.140812 -0.264578 0.683585 -0.665494 1.5 0.5 0.5 
541 1 1.22085 4.45374 6.46303 0.941226 -0.199931 -0.0759645 0.26144 1.5 0.5 0.5 
212 1 4.21889 2.39916 0.805324 -0.229602 -0.216526 0.681355 0.66042 1.5 0.5 0.5 
943 1 6.63907 3.58842 1.70385 0.0345406 0.357972 -0.917161 -0.171692 1.5 0.5 0.5 
801 1 6.62441 2.4001 2.35883 -0.521753 -0.808252 -0.213044 -0.170632 1.5 0.5 0.5 
198 1 5.8401 2.18365 4.96569 0.273499 -0.438344 0.583182 -0.626858 1.5 0.5 0.5 
39 1 5.42323 0.475326 7.03173 -0.445614 -0.785896 -0.314081 -0.291801 1.5 0.5 0.5 
119 1 2.80701 5.95728 2.10899 0.320882 -0.0977388 0.345348 -0.87648 1.5 0.5 0.5 
822 1 3.56141 1.809 6.66589 0.305153 0.384683 -0.778209 -0.391525 1.5 0.5 0.5 
112 1 0.875966 1.41969 6.51366 -0.159537 0.317698 -0.79983 0.48362 1.5 0.5 0.5 
128 1 3.81357 5.46335 1.46971 -0.301734 -0.153984 0.594663 0.729124 1.5 0.5 0.5 
814 1 4.07448 4.60192 3.30608 -0.0471453 -0.359777 0.91671 0.167272 1.5 0.5 0.5 
74 1 2.92373 2.4453 3.6523 0.476542 -0.81144 -0.268168 0.206297 1.5 0.5 0.5 
765 1 2.78449 6.21077 0.97439 0.0726457 0.512465 -0.85134 0.0855667 1.5 0.5 0.5 
352 1 4.48029 4.37608 1.13414 -0.886195 0.27971 0.128444 -0.3463 1.5 0.5 0.5 
757 1 2.94375 6.69139 6.17755 -0.117206 -0.935216 -0.277149 0.186607 1.5 0.5 0.5 
62 1 0.643852 6.82755 6.8973 -0.831616 -0.282098 -0.337895 -0.33862 1.5 0.5 0.5 
670 1 4.20609 1.19642 5.7664 0.102228 -0.903282 -0.416673 -0.00378694 1.5 0.5 0.5 
407 1 1.14725 1.12041 4.65933 -0.377932 0.27808 -0.288694 0.834562 1.5 0.5 0.5 
898 1 4.96737 4.02185 7.40127 0.454301 -0.0246171 -0.181746 -0.871764 1.5 0.5 0.5 
930 1 1.37242 0.569254 7.14454 -0.21877 0.177216 -0.293632 0.913518 1.5 0.5 0.5 
860 1 0.441154 4.70368 0.751442 0.16543 -0.228506 0.921229 -0.267872 1.5 0.5 0.5 
441 1 6.68385 2.59051 6.64585 -0.505545 0.0379515 -0.127536 0.852478 1.5 0.5 0.5 
660 1 5.29482 0.409405 3.42736 -0.211537 0.896351 0.347734 -0.17575 1.5 0.5 0.5 
799 1 0.445517 1.32114 1.32037 0.829099 -0.479691 -0.136086 0.252927 1.5 0.5 0.5 
269 1 2.91325 3.1169 5.82808 0.93037 0.0459053 0.0645702 0.357961 1.5 0.5 0.5 
809 1 6.5942 6.3979 1.54993 -0.907085 -0.150525 -0.0383946 -0.391236 1.5 0.5 0.5 
607 1 0.687396 0.771647 3.12023 -0.549685 -0.750434 -0.104049 -0.351951 1.5 0.5 0.5 
370 1 7.25062 2.48103 4.90262 0.750789 0.423306 0.213473 0.459953 1.5 0.5 0.5 
157 1 4.18078 0.888743 1.57714 0.256411 -0.178501 0.238756 -0.919449 1.5 0.5 0.5 
486 1 3.36018 1.40194 3.27144 -0.84312 0.371108 0.125446 -0.368363 1.5 0.5 0.5 
315 1 3.91551 1.10692 0.370458 -0.226867 -0.0806234 0.0790272 0.96736 1.5 0.5 0.5 
317 1 2.95004 2.74884 4.8566 -0.00610524 -0.499109 0.866517 -0.00142813 1.5 0.5 0.5 
611 1 4.23997 0.838656 3.9314 -0.0384021 -0.299136 0.935418 -0.184487 1.5 0.5 0.5 
638 1 1.20376 0.280484 2.35791 0.641747 0.604606 0.277404 0.381653 1.5 0.5 0.5 
44 1 5.48323 7.2911 7.06692 -0.795882 0.356717 0.318199 -0.371583 1.5 0.5 0.5 
9 1 6.84472 6.96998 6.51142 -0.267181 0.255542 -0.868987 0.328899 1.5 0.5 0.5 
728 1 2.42185 3.44673 3.99529 -0.617912 -0.653307 -0.34811 -0.264942 1.5 0.5 0.5 
837 1 1.95963 2.66743 2.51413 0.464098 0.0165097 -0.0238373 -0.885309 1.5 0.5 0.5 
826 1 1.27558 0.0569478 3.96013 -0.599939 -0.694033 -0.267558 -0.294625 1.5 0.5 0.5 
911 1 2.65763 2.21382 1.20911 0.0743564 -0.390509 0.90932 0.122924 1.5 0.5 0.5 
328 1 5.04707 4.41443 4.12374 -0.581123 0.711156 0.2349 -0.318393 1.5 0.5 0.5 
2 1 5.17054 4.12639 2.89051 -0.506956 0.779471 0.360934 -0.0717435 1.5 0.5 0.5 
271 1 1.99927 3.22671 5.16619 0.288831 0.327611 -0.799162 -0.413022 1.5 0.5 0.5 
493 1 5.27024 3.20585 3.72251 -0.215993 -0.863145 -0.437722 -0.129331 1.5 0.5 0.5 
532 1 6.43683 3.42227 5.75388 0.181549 0.961068 0.203175 -0.0459076 1.5 0.5 0.5 
32 1 4.6414 1.30187 4.65624 0.363337 -0.397169 0.418888 -0.731284 1.5 0.5 0.5 
910 1 5.51145 6.89139 4.56017 0.0628942 -0.302765 0.915902 -0.255934 1.5 0.5 0.5 
398 1 3.0878 2.4467 2.46978 0.381913 -0.319808 0.616263 -0.609988 1.5 0.5 0.5 
645 1 2.56355 0.149779 0.959493 0.45215 0.21437 -0.11138 -0.858604 1.5 0.5 0.5 
932 1 1.43033 0.609538 6.07653 0.1511 -0.434074 0.757001 -0.464432 1.5 0.5 0.5 
294 1 4.22212 4.7007 2.19994 -0.265461 -0.293583 0.663508 0.634898 1.5 0.5 0.5 
896 1 3.11118 5.6337 4.70536 -0.00779869 -0.535437 0.760959 0.366316 1.5 0.5 0.5 
845 1 1.47294 5.16013 2.99936 -0.842548 0.368254 0.127342 -0.371867 1.5 0.5 0.5 
171 1 1.51579 3.71122 3.43969 -0.847179 0.241127 0.154748 -0.447437 1.5 0.5 0.5 
769 1 4.03791 2.07673 1.99886 0.346967 -0.251443 0.466715 -0.773671 1.5 0.5 0.5 
779 1 6.76959 1.28659 5.9392 0.251912 -0.543422 0.647815 -0.470712 1.5 0.5 0.5 
673 1 4.19097 5.09544 4.34505 -0.421002 -0.0661978 0.449364 0.785142 1.5 0.5 0.5 
105 1 6.8995 7.29701 5.28484 -0.72414 -0.562673 -0.254122 -0.307315 1.5 0.5 0.5 
619 1 1.82467 6.4519 1.79055 -0.438323 0.836499 0.207846 -0.254837 1.5 0.5 0.5 
713 1 5.54764 3.08737 6.9293 0.462109 -0.801103 -0.371256 0.0828143 1.5 0.5 0.5 
224 1 4.18049 4.86919 0.2362 0.0693837 0.941019 0.327439 -0.0495241 1.5 0.5 0.5 
122 1 1.98096 7.27348 6.02076 -0.79472 0.450616 0.276478 -0.298203 1.5 0.5 0.5 
371 1 0.133367 1.57454 2.34772 0.70544 0.556707 0.191842 0.394498 1.5 0.5 0.5 
764 1 3.16982 1.77594 5.46714 0.387064 -0.232709 0.556758 -0.697172 1.5 0.5 0.5 
265 1 4.83249 0.296132 0.836505 -0.482527 -0.075762 0.582761 0.649475 1.5 0.5 0.5 
753 1 3.91184 5.67499 6.33201 0.489574 0.732443 0.403079 0.247734 1.5 0.5 0.5 
517 1 0.567465 5.33901 6.66395 0.377641 -0.847204 -0.304988 0.215906 1.5 0.5 0.5 
161 1 0.0608623 1.1921 5.55445 -0.341673 -0.247323 0.344817 0.838565 1.5 0.5 0.5 
933 1 5.46319 4.1027 6.26295 0.241816 -0.28675 0.926974 -0.00428741 1.5 0.5 0.5 
251 1 0.640886 2.20084 4.49498 -0.505564 -0.0438424 0.222127 0.832552 1.5 0.5 0.5 
788 1 5.35997 3.40837 4.91354 0.321222 -0.890649 -0.311544 0.0806258 1.5 0.5 0.5 
472 1 6.48576 5.97341 0.489058 -0.322802 0.432583 -0.633067 0.554885 1.5 0.5 0.5 
261 1 1.77725 6.76773 0.539618 0.943069 -0.0703784 0.0375308 0.322893 1.5 0.5 0.5 
868 1 4.09005 0.765983 6.8349 0.105937 -0.400596 0.870154 -0.266705 1.5 0.5 0.5 
708 1 4.17406 5.35537 5.39043 -0.743078 -0.562631 -0.236556 -0.274449 1.5 0.5 0.5 
615 1 1.94246 5.94279 4.87574 0.176989 0.417233 -0.794554 -0.404073 1.5 0.5 0.5 
18 1 2.91203 2.97058 6.80354 0.494256 0.0749517 -0.158436 -0.851464 1.5 0.5 0.5 
740 1 6.51894 6.74527 2.6636 0.0572159 -0.882747 -0.445929 0.136499 1.5 0.5 0.5 
21 1 6.86769 6.74248 4.37579 0.330347 -0.821453 -0.442725 0.141704 1.5 0.5 0.5 
460 1 1.0015 0.304707 1.22204 -0.170327 0.400257 -0.899973 0.0288331 1.5 0.5 0.5 
284 1 4.76966 1.04171 2.72187 -0.290792 0.328032 -0.837527 0.326167 1.5 0.5 0.5 
239 1 2.47588 6.27901 3.93503 0.885072 0.00639825 0.0114343 0.46527 1.5 0.5 0.5 
890 1 3.39088 5.12325 2.65175 -0.2476 0.888927 0.357759 -0.143218 1.5 0.5 0.5 
901 1 3.39171 1.72518 4.30652 0.707726 -0.584603 -0.19503 0.345437 1.5 0.5 0.5 
499 1 4.83766 4.6658 5.16755 -0.312705 0.839012 0.40942 -0.175072 1.5 0.5 0.5 
478 1 2.35504 5 5.46239 -0.114732 -0.86013 -0.309691 -0.388722 1.5 0.5 0.5 
605 1 5.40912 0.327495 4.53534 -0.913335 -0.127638 -0.142144 -0.359614 1.5 0.5 0.5 
810 1 4.61911 7.25496 1.20961 0.0596334 -0.337934 0.921091 -0.183947 1.5 0.5 0.5 
67 1 4.92327 4.95347 6.29283 0.856028 0.360183 0.115662 0.352288 1.5 0.5 0.5 
12 1 7.21145 5.47323 4.85735 -0.451296 -0.840439 -0.272935 -0.124498 1.5 0.5 0.5 
568 1 5.76314 6.9984 3.44643 0.135865 0.366133 -0.859874 -0.328791 1.5 0.5 0.5 
481 1 7.18038 5.25662 2.50817 0.370974 0.845564 0.364216 0.12143 1.5 0.5 0.5 
462 1 7.23214 4.76768 3.53351 -0.886897 -0.113208 -0.0636048 -0.443342 1.5 0.5 0.5 
745 1 1.85624 3.80095 7.16387 0.143032 -0.232724 0.719949 -0.638009 1.5 0.5 0.5 
354 1 1.69761 3.42577 6.28799 -0.371648 0.0496414 0.0877124 0.922887 1.5 0.5 0.5 
872 1 2.87584 5.55446 7.40418 -0.864781 0.352956 0.155706 -0.321452 1.5 0.5 0.5 
734 1 4.07228 5.30894 7.3568 -0.43346 0.729327 0.480579 -0.2219 1.5 0.5 0.5 
413 1 7.37917 1.49485 3.37975 -0.486044 0.00675043 0.391412 0.781353 1.5 0.5 0.5 
686 1 7.14272 5.82423 6.79477 -0.240283 0.0597622 -0.167229 0.95432 1.5 0.5 0.5 
4 1 1.55231 3.14545 0.068943 0.128215 0.368444 -0.877119 -0.28013 1.5 0.5 0.5 
484 1 0.0740964 4.56921 2.36335 0.704078 -0.642816 -0.144293 0.265032 1.5 0.5 0.5 
447 1 1.68555 0.130776 -0.0336126 0.825302 0.391419 0.212424 0.347194 1.5 0.5 0.5 
365 1 0.905004 1.73375 7.42198 0.862807 -0.232445 -0.127662 0.430391 1.5 0.5 0.5 
378 1 1.13361 1.17794 0.0457516 -0.892559 0.350103 0.142094 -0.246119 1.5 0.5 0.5 
489 1 2.36341 5.72833 11.5501 0.659497 0.548384 0.454267 0.24079 1.5 0.5 0.5 
296 1 0.114975 1.52483 11.5563 0.361968 -0.844075 -0.393312 0.0426956 1.5 0.5 0.5 
174 1 1.57442 6.52398 9.00868 0.374631 0.156153 -0.750506 -0.521545 1.5 0.5 0.5 
926 1 1.55462 7.31901 14.2533 0.0960811 0.409663 -0.904821 0.0651398 1.5 0.5 0.5 
61 1 3.69104 1.82653 8.60458 0.636515 -0.698138 -0.312515 0.098922 1.5 0.5 0.5 
681 1 0.565294 0.778266 12.3895 -0.285615 -0.112062 0.410474 0.858706 1.5 0.5 0.5 
808 1 5.28636 4.2807 10.0624 0.187877 -0.155289 0.582955 -0.775081 1.5 0.5 0.5 
580 1 6.473 6.03302 8.53848 0.30789 -0.861056 -0.366495 0.171661 1.5 0.5 0.5 
98 1 2.87366 2.14213 9.26844 -0.576016 0.152562 -0.00356474 0.803067 1.5 0.5 0.5 
325 1 7.29481 0.860026 9.73607 -0.643226 0.66203 0.343113 -0.173927 1.5 0.5 0.5 
217 1 0.689684 4.531 8.89703 -0.850736 -0.384346 -0.129728 -0.334212 1.5 0.5 0.5 
279 1 1.14887 5.3326 10.4115 -0.0368553 -0.372658 0.794642 0.47782 1.5 0.5 0.5 
818 1 2.00949 0.0237472 12.8433 0.289775 -0.878193 -0.288615 0.248011 1.5 0.5 0.5 
395 1 2.55173 4.02888 9.11807 -0.509544 0.251563 -0.55147 0.610705 1.5 0.5 0.5 
921 1 3.87868 1.26299 7.71486 -0.843918 0.154109 -0.0162629 -0.513604 1.5 0.5 0.5 
520 1 4.81934 3.34149 14.7241 -0.361418 0.0180234 -0.187939 0.913089 1.5 0.5 0.5 
297 1 6.13634 6.33512 7.57266 -0.261795 0.207228 -0.657776 0.675167 1.5 0.5 0.5 
592 1 7.20534 1.58822 13.8334 0.195233 0.903469 0.376306 0.0634125 1.5 0.5 0.5 
94 1 2.45415 2.97027 7.96141 0.805192 -0.361071 -0.0760002 0.464239 1.5 0.5 0.5 
416 1 6.73486 1.89026 11.9453 -0.0238607 0.41338 -0.864688 0.284362 1.5 0.5 0.5 
817 1 4.31252 1.07878 11.904 -0.0537628 0.236495 -0.772166 0.587316 1.5 0.5 0.5 
51 1 4.75819 7.14069 10.9394 -0.226603 -0.912086 -0.339387 -0.0395848 1.5 0.5 0.5 
584 1 4.6999 0.265299 11.5759 0.697084 -0.674982 -0.144301 0.194037 1.5 0.5 0.5 
196 1 5.5815 2.88194 8.45808 -0.778425 -0.427717 -0.0726272 -0.453693 1.5 0.5 0.5 
892 1 1.44724 6.94736 13.1595 0.0274926 -0.938663 -0.335615 0.07429 1.5 0.5 0.5 
696 1 1.62998 5.97046 14.1243 -0.50786 -0.0626126 0.453951 0.729443 1.5 0.5 0.5 
649 1 0.834418 3.1798 13.7597 0.86898 0.37484 -0.0146263 0.322732 1.5 0.5 0.5 
965 1 3.62192 1.04222 14.0287 0.881636 -0.367803 -0.051019 0.291266 1.5 0.5 0.5 
966 1 6.96407 2.67052 14.4558 0.247243 0.328066 -0.430501 -0.803687 1.5 0.5 0.5 
591 1 0.422777 1.19551 13.3778 -0.77672 -0.522383 -0.292108 -0.196201 1.5 0.5 0.5 
722 1 3.42369 5.30842 8.31836 -0.0131818 0.560325 -0.826633 0.0504013 1.5 0.5 0.5 
172 1 2.79972 5.89822 14.7512 0.681138 0.654132 0.280767 0.171267 1.5 0.5 0.5 
887 1 1.11553 0.507535 8.31041 -0.238877 0.873586 0.387637 -0.171822 1.5 0.5 0.5 
380 1 2.34285 5.18249 13.8649 0.342669 -0.226733 0.082118 -0.907979 1.5 0.5 0.5 
245 1 5.20636 6.53767 8.53985 -0.193317 0.358326 -0.856272 0.31785 1.5 0.5 0.5 
226 1 -0.0543609 3.35306 14.649 0.932018 0.195483 0.0951278 0.289964 1.5 0.5 0.5 
205 1 1.23592 3.85765 12.8048 0.284441 0.418397 -0.734284 -0.452619 1.5 0.5 0.5 
79 1 6.14347 6.75925 9.57826 0.41699 -0.171885 0.177648 -0.874652 1.5 0.5 0.5 
697 1 1.57634 6.92136 11.9817 0.735056 -0.0851029 -0.185031 -0.646694 1.5 0.5 0.5 
72 1 3.06965 2.02735 7.59476 -0.291276 0.330463 -0.565776 0.697029 1.5 0.5 0.5 
821 1 2.98963 2.70538 10.2695 -0.290123 -0.149354 0.181337 0.927706 1.5 0.5 0.5 
750 1 5.79952 3.71673 12.886 0.921495 -0.313394 0.00607771 0.229333 1.5 0.5 0.5 
690 1 6.86688 1.65753 7.96086 -0.231766 0.241705 -0.60298 0.724071 1.5 0.5 0.5 
903 1 5.97434 2.84639 13.698 0.496119 -0.747296 -0.394823 0.198822 1.5 0.5 0.5 
941 1 4.19061 1.21083 9.60046 0.316462 0.28539 -0.673534 -0.603951 1.5 0.5 0.5 
90 1 6.02389 5.84596 14.2186 0.437374 -0.729143 -0.350754 0.392462 1.5 0.5 0.5 
78 1 6.23768 6.35967 11.7145 -0.0459622 0.797376 0.590653 -0.114928 1.5 0.5 0.5 
653 1 7.01224 5.24233 7.74128 -0.352863 0.868782 0.334857 -0.0926048 1.5 0.5 0.5 
561 1 0.840951 4.66674 13.5075 0.403202 -0.819469 -0.262418 0.311506 1.5 0.5 0.5 
213 1 1.31274 0.544322 13.8218 -0.317096 -0.274014 0.657613 0.626028 1.5 0.5 0.5 
132 1 6.80943 1.78322 9.83829 0.226193 0.345351 -0.516332 -0.750314 1.5 0.5 0.5 
869 1 2.96376 6.63768 12.5649 -0.72079 -0.577537 -0.247445 -0.292717 1.5 0.5 0.5 
701 1 2.92046 2.50699 12.7289 -0.333212 -0.056425 0.211613 0.917064 1.5 0.5 0.5 
969 1 5.0059 3.0641 9.55733 -0.257082 0.947624 0.172078 -0.079416 1.5 0.5 0.5 
215 1 5.17561 3.98887 11.3982 0.464043 -0.804106 -0.216861 0.301743 1.5 0.5 0.5 
241 1 2.88166 1.49913 10.3593 0.212345 0.949494 0.230828 0.00944458 1.5 0.5 0.5 
823 1 4.94502 7.1121 9.58524 0.372366 -0.260918 0.679052 -0.576327 1.5 0.5 0.5 
392 1 7.27299 1.46752 10.7824 0.774796 0.513195 0.105558 0.353806 1.5 0.5 0.5 
497 1 3.35052 1.93118 11.8079 -0.851894 -0.405829 -0.225862 -0.242006 1.5 0.5 0.5 
99 1 4.57033 0.893147 12.8679 0.175678 -0.947035 -0.25065 0.0971434 1.5 0.5 0.5 
410 1 7.36556 5.57976 12.7325 -0.370543 -0.0396334 -0.17513 0.911294 1.5 0.5 0.5 
282 1 0.718625 3.39911 11.0143 0.441966 0.70871 0.474776 0.277461 1.5 0.5 0.5 
434 1 0.638358 4.34166 11.9887 -0.421737 -0.331019 0.48081 0.69382 1.5 0.5 0.5 
92 1 1.17028 3.8488 9.80709 0.0395681 -0.911964 -0.407614 0.0246216 1.5 0.5 0.5 
429 1 4.54 5.46706 11.5503 -0.856676 -0.324225 -0.223266 -0.333371 1.5 0.5 0.5 
961 1 4.81282 0.298848 13.8779 -0.934615 -0.0669385 -0.0508122 -0.345589 1.5 0.5 0.5 
602 1 2.53605 5.98221 9.33908 -0.368615 -0.0906532 0.624297 0.682757 1.5 0.5 0.5 
368 1 3.07292 3.07948 11.582 0.308757 -0.867728 -0.362206 0.143265 1.5 0.5 0.5 
45 1 4.32477 4.51728 9.21467 -0.118889 -0.431068 0.883658 -0.138542 1.5 0.5 0.5 
874 1 4.36005 4.463 8.09364 0.670384 -0.629527 -0.258793 0.295478 1.5 0.5 0.5 
46 1 4.69644 1.1122 8.83204 0.392114 -0.117943 0.462944 -0.786142 1.5 0.5 0.5 
601 1 5.48074 3.05268 10.717 0.206071 -0.363109 0.685037 -0.597002 1.5 0.5 0.5 
632 1 6.48552 2.89169 9.96372 -0.162077 -0.929011 -0.318931 -0.0946216 1.5 0.5 0.5 
134 1 6.11027 1.76093 10.8926 0.268694 0.0893424 -0.505199 -0.815228 1.5 0.5 0.5 
235 1 3.35286 5.65801 12.3194 0.325565 -0.829039 -0.255357 0.376158 1.5 0.5 0.5 
209 1 0.120753 0.812714 9.65184 -0.818393 0.37823 0.205299 -0.380823 1.5 0.5 0.5 
862 1 1.56366 6.67673 7.76103 0.507442 0.0214528 -0.499535 -0.701789 1.5 0.5 0.5 
133 1 0.314487 5.35382 11.0857 0.498755 0.72681 0.274241 0.384424 1.5 0.5 0.5 
776 1 2.88391 4.97678 10.94 0.321923 -0.000933946 -0.307702 -0.895368 1.5 0.5 0.5 
17 1 7.17847 1.15943 12.6868 0.793267 -0.420218 -0.147559 0.415176 1.5 0.5 0.5 
939 1 3.13239 6.0484 9.92924 -0.538196 -0.724727 -0.403763 -0.148631 1.5 0.5 0.5 
691 1 4.51373 4.42183 12.43 0.0845258 -0.214394 0.894876 -0.382214 1.5 0.5 0.5 
702 1 6.04457 5.63116 13.1503 0.428102 -0.781464 -0.354103 0.283995 1.5 0.5 0.5 
662 1 7.01538 6.09284 10.5466 -0.0545026 0.389027 -0.91017 0.131443 1.5 0.5 0.5 
572 1 1.09267 1.53926 10.6899 0.270953 0.126442 -0.18329 -0.936484 1.5 0.5 0.5 
326 1 5.0624 0.182477 10.3955 -0.680309 0.64477 0.200085 -0.285338 1.5 0.5 0.5 
344 1 0.0112086 5.20046 12.26 -0.327916 0.229638 -0.438188 0.804816 1.5 0.5 0.5 
689 1 2.04213 3.14514 12.4586 0.857354 -0.323579 -0.1301 0.378569 1.5 0.5 0.5 
306 1 4.8795 3.69263 8.6257 -0.798206 -0.453708 -0.0320121 -0.394957 1.5 0.5 0.5 
665 1 5.71205 6.82427 13.3547 -0.312771 -0.248863 0.704545 0.586394 1.5 0.5 0.5 
322 1 2.4581 3.20062 13.5381 0.371332 -0.0903817 0.107407 -0.917828 1.5 0.5 0.5 
900 1 6.9149 6.12845 9.44528 0.0751603 0.907071 0.412989 -0.0318151 1.5 0.5 0.5 
197 1 6.9496 5.24866 13.8147 -0.619832 0.70679 0.203934 -0.273254 1.5 0.5 0.5 
424 1 6.91101 5.21222 11.6278 -0.104331 0.854313 0.507178 -0.0451124 1.5 0.5 0.5 
674 1 7.05657 1.23812 8.81497 0.254567 -0.887718 -0.380501 0.0486882 1.5 0.5 0.5 
58 1 3.79317 2.59334 13.6634 -0.73221 0.668741 0.0754057 -0.104727 1.5 0.5 0.5 
167 1 5.53363 2.63328 14.7891 -0.0828451 0.406652 -0.905744 -0.0860217 1.5 0.5 0.5 
692 1 1.42476 3.44846 8.3205 -0.240703 0.34458 -0.592829 0.686935 1.5 0.5 0.5 
320 1 0.894394 7.39541 8.74752 -0.402724 -0.201011 0.576087 0.682299 1.5 0.5 0.5 
888 1 5.6922 3.07272 11.9715 0.159063 0.180408 -0.90177 -0.359114 1.5 0.5 0.5 
651 1 2.34576 5.79234 8.30436 -0.545983 0.616432 0.314189 -0.472439 1.5 0.5 0.5 
154 1 1.96473 3.38337 10.3981 0.121198 0.309736 -0.884012 -0.328477 1.5 0.5 0.5 
142 1 4.31557 6.62449 13.0707 -0.152933 -0.873748 -0.46082 -0.0286325 1.5 0.5 0.5 
34 1 3.73133 1.73346 12.963 0.189306 0.19183 -0.793195 -0.546083 1.5 0.5 0.5 
504 1 4.39527 5.01301 10.4206 0.555383 -0.652205 -0.244287 0.454425 1.5 0.5 0.5 
164 1 4.17167 4.44555 14.0329 0.308599 -0.211878 0.41666 -0.828413 1.5 0.5 0.5 
754 1 0.34012 1.20963 8.5274 -0.384159 0.0488338 -0.0678399 0.919475 1.5 0.5 0.5 
768 1 6.23303 2.54407 7.68468 -0.157745 0.943061 0.279474 0.0874498 1.5 0.5 0.5 
952 1 3.81289 5.52984 14.1407 0.318841 0.243361 -0.534389 -0.744005 1.5 0.5 0.5 
11 1 4.91477 5.82279 12.5854 0.061608 0.31439 -0.946666 -0.0344575 1.5 0.5 0.5 
247 1 3.54379 0.94148 10.9879 0.955782 -0.00675077 0.136839 0.260213 1.5 0.5 0.5 
324 1 5.92476 6.63753 10.6421 0.511699 0.00700949 -0.0266619 -0.858722 1.5 0.5 0.5 
838 1 0.664227 4.38297 7.48251 -0.548435 -0.753004 -0.304626 -0.198514 1.5 0.5 0.5 
248 1 0.691685 0.368955 11.2561 0.137358 0.251353 -0.751535 -0.594264 1.5 0.5 0.5 
126 1 6.72354 2.51273 8.85726 -0.276012 0.870283 0.407938 -0.0034529 1.5 0.5 0.5 
373 1 4.66039 0.550487 7.75781 -0.0409159 0.408251 -0.910151 0.0572982 1.5 0.5 0.5 
613 1 6.72463 2.23596 13.1626 0.311535 0.373478 -0.722316 -0.49165 1.5 0.5 0.5 
425 1 1.01992 0.365099 9.78103 -0.400343 -0.0303576 0.172548 0.899461 1.5 0.5 0.5 
771 1 0.841046 8.70415 6.61684 -0.41491 -0.0875618 0.385456 0.819516 1.5 0.5 0.5 
414 1 7.0566 10.3551 1.32985 0.0149757 -0.309989 0.949551 -0.0451105 1.5 0.5 0.5 
899 1 3.87353 8.71813 4.57365 -0.404222 0.227731 -0.555184 0.6903 1.5 0.5 0.5 
685 1 0.722467 8.54296 2.51299 -0.905813 -0.102091 -0.128824 -0.390492 1.5 0.5 0.5 
281 1 4.76943 7.42914 5.33462 0.58261 0.656807 0.354172 0.322074 1.5 0.5 0.5 
906 1 3.48336 10.0545 1.70361 -0.910347 -0.219992 -0.19435 -0.291718 1.5 0.5 0.5 
327 1 1.91055 8.88788 1.28099 0.0301122 -0.345464 0.784693 -0.513814 1.5 0.5 0.5 
385 1 5.20711 7.51546 2.73678 0.434645 -0.0897766 0.0823247 -0.892326 1.5 0.5 0.5 
743 1 4.01729 9.09978 1.87357 0.907629 0.263832 0.110947 0.307072 1.5 0.5 0.5 
246 1 0.60327 9.25465 1.65393 -0.208556 0.274058 -0.433026 0.832997 1.5 0.5 0.5 
581 1 2.78032 8.37904 3.84049 -0.480979 -0.103804 0.18191 0.851348 1.5 0.5 0.5 
249 1 0.429301 9.064 3.55819 -0.786594 0.49917 0.0693578 -0.356775 1.5 0.5 0.5 
82 1 4.24488 7.53858 7.39079 -0.0988753 -0.345041 0.781564 0.510224 1.5 0.5 0.5 
967 1 5.69978 14.3139 1.22308 -0.698908 -0.602949 -0.310786 -0.226699 1.5 0.5 0.5 
847 1 1.91367 14.1074 4.04832 0.858079 -0.35459 -0.0919635 0.359873 1.5 0.5 0.5 
889 1 1.05928 11.4563 1.80987 -0.235258 -0.211684 0.58574 0.746158 1.5 0.5 0.5 
415 1 1.10521 9.19309 0.480594 -0.293991 0.912035 0.261129 -0.116499 1.5 0.5 0.5 
931 1 5.61415 11.113 0.208173 -0.199484 -0.213439 0.95519 0.0475585 1.5 0.5 0.5 
218 1 5.90649 11.1235 1.45904 -0.487393 -0.802698 -0.326114 -0.108505 1.5 0.5 0.5 
785 1 1.56408 12.1795 0.40507 0.317034 -0.195957 0.545629 -0.750586 1.5 0.5 0.5 
237 1 4.15197 12.5073 7.17808 -0.680743 0.669772 0.130396 -0.266443 1.5 0.5 0.5 
560 1 3.69247 13.1026 0.889295 0.240369 -0.242931 0.699885 -0.627191 1.5 0.5 0.5 
723 1 6.35758 11.6528 2.44662 0.240005 -0.165659 0.506732 -0.811281 1.5 0.5 0.5 
644 1 4.9737 9.43908 3.76267 0.193217 0.0533309 0.0893231 -0.975625 1.5 0.5 0.5 
936 1 5.2817 12.0886 1.50421 0.306362 -0.201236 0.256886 -0.894235 1.5 0.5 0.5 
490 1 3.62495 12.7483 4.21649 -0.419563 0.0821204 -0.0255196 0.903644 1.5 0.5 0.5 
657 1 2.16719 14.3294 6.26001 0.333561 -0.406725 0.555428 -0.644059 1.5 0.5 0.5 
33 1 0.929631 9.42178 4.49291 0.303208 0.0800235 -0.752605 -0.579005 1.5 0.5 0.5 
656 1 3.29553 13.1463 6.65504 0.513427 -0.807845 -0.203045 0.206282 1.5 0.5 0.5 
938 1 1.38223 7.72908 3.50894 -0.480759 0.146959 -0.281553 0.817314 1.5 0.5 0.5 
755 1 6.26711 10.4681 0.448529 0.302087 0.0952457 -0.733366 -0.601536 1.5 0.5 0.5 
144 1 3.56083 9.00975 0.556256 0.119397 0.922133 0.32237 0.177461 1.5 0.5 0.5 
179 1 7.18348 14.0348 1.19601 0.16807 0.364286 -0.910411 0.100989 1.5 0.5 0.5 
627 1 2.66592 13.729 2.41519 0.313949 -0.136691 0.344431 -0.874139 1.5 0.5 0.5 
789 1 6.93157 10.1012 5.76669 0.148415 0.171193 -0.755922 -0.614205 1.5 0.5 0.5 
277 1 1.34038 14.7085 5.17368 -0.102431 -0.341593 0.926778 -0.117916 1.5 0.5 0.5 
412 1 5.63117 11.4956 6.45525 -0.36659 -0.0204706 0.064869 0.927893 1.5 0.5 0.5 
882 1 0.881074 12.0348 6.99404 -0.916492 0.155998 0.0325622 -0.366942 1.5 0.5 0.5 
189 1 3.25557 9.23965 6.08827 -0.169456 -0.957219 -0.224631 -0.0675138 1.5 0.5 0.5 
10 1 5.19555 12.4521 6.05109 -0.218468 -0.944219 -0.241188 -0.0505034 1.5 0.5 0.5 
298 1 1.30832 11.1402 6.44797 0.399531 -0.857989 -0.263889 0.185988 1.5 0.5 0.5 
310 1 5.5477 14.5926 5.8005 0.566426 -0.609472 -0.286727 0.474861 1.5 0.5 0.5 
219 1 5.10449 11.7723 3.06329 0.891272 -0.301288 -0.0414191 0.336368 1.5 0.5 0.5 
153 1 7.13771 8.86253 5.46716 -0.67002 0.660417 0.288721 -0.17766 1.5 0.5 0.5 
470 1 3.86046 8.63636 6.86957 0.328971 -0.207669 0.569426 -0.724159 1.5 0.5 0.5 
603 1 2.97106 10.5716 0.722267 0.168634 0.201235 -0.924746 -0.275523 1.5 0.5 0.5 
54 1 5.08356 11.1172 5.33603 -0.0479012 0.423921 -0.822617 0.375897 1.5 0.5 0.5 
423 1 5.85677 13.9384 2.288 0.103007 -0.219321 0.696837 -0.675059 1.5 0.5 0.5 
181 1 1.56592 7.51559 1.50744 -0.901319 0.39049 0.0799394 -0.169564 1.5 0.5 0.5 
940 1 2.4396 10.5311 4.70461 0.594427 0.705371 0.344082 0.175257 1.5 0.5 0.5 
844 1 1.83233 10.4472 2.01516 0.496943 0.800008 0.334366 -0.0351447 1.5 0.5 0.5 
711 1 4.32672 13.069 5.16112 -0.383753 0.188586 -0.27566 0.860919 1.5 0.5 0.5 
70 1 3.4361 13.0374 1.95977 0.326274 -0.173512 0.418723 -0.829524 1.5 0.5 0.5 
853 1 5.01363 8.33123 2.07949 -0.831108 -0.3773 -0.227144 -0.339572 1.5 0.5 0.5 
833 1 3.67479 9.56586 2.87906 0.227198 -0.223041 0.500629 -0.804987 1.5 0.5 0.5 
353 1 5.7259 7.57142 6.10261 0.40198 0.275335 -0.411636 -0.770168 1.5 0.5 0.5 
396 1 7.26021 9.99124 3.37009 -0.259141 0.249836 -0.655401 0.663986 1.5 0.5 0.5 
255 1 6.16511 10.335 2.94702 0.250367 -0.396481 0.796839 -0.381007 1.5 0.5 0.5 
313 1 1.20584 7.97014 0.579319 -0.188083 -0.223573 0.952277 0.0883617 1.5 0.5 0.5 
923 1 3.15875 10.4058 3.80114 -0.5677 0.7475 0.288416 -0.189147 1.5 0.5 0.5 
56 1 1.5101 11.7401 2.92353 0.876435 -0.350869 -0.0584764 0.324551 1.5 0.5 0.5 
617 1 0.585222 12.2968 3.49541 0.705041 0.623265 0.213001 0.262846 1.5 0.5 0.5 
125 1 5.77804 14.1042 4.28125 0.463188 -0.795631 -0.343633 0.185322 1.5 0.5 0.5 
598 1 2.20088 12.2668 5.23652 -0.205432 -0.24356 0.901411 0.293146 1.5 0.5 0.5 
824 1 2.40479 11.3202 3.54639 0.147183 -0.904019 -0.388204 0.101908 1.5 0.5 0.5 
176 1 3.10497 14.0743 3.39568 0.432823 -0.842301 -0.285127 0.147974 1.5 0.5 0.5 
283 1 3.72545 11.7914 1.69161 0.241097 0.822754 0.514731 0.00065371 1.5 0.5 0.5 
303 1 4.57986 12.5693 3.53417 -0.717872 -0.573047 -0.308748 -0.246886 1.5 0.5 0.5 
341 1 6.29333 13.8446 0.212341 -0.0671816 -0.329111 0.927991 -0.161261 1.5 0.5 0.5 
876 1 4.99971 11.9422 4.25444 -0.0404463 -0.269647 0.852711 -0.445577 1.5 0.5 0.5 
104 1 6.94659 9.54286 2.29602 0.823189 -0.319549 -0.256564 0.392967 1.5 0.5 0.5 
417 1 0.639007 8.21112 5.48163 0.677188 0.699394 0.132365 0.186399 1.5 0.5 0.5 
795 1 3.64599 13.8615 5.55521 -0.192525 0.901449 0.340148 -0.186075 1.5 0.5 0.5 
147 1 7.07654 13.4152 2.3786 -0.86067 -0.346606 -0.114469 -0.354976 1.5 0.5 0.5 
654 1 3.78195 13.3407 3.08835 0.204092 0.919973 0.330848 0.050355 1.5 0.5 0.5 
403 1 0.365726 12.5823 2.23226 -0.674557 0.651528 0.201838 -0.282393 1.5 0.5 0.5 
636 1 6.50491 10.9174 6.829 -0.815708 0.334734 0.23233 -0.410604 1.5 0.5 0.5 
746 1 0.297787 12.7789 0.349831 0.101914 -0.362569 0.904334 -0.200842 1.5 0.5 0.5 
321 1 0.0466129 13.0379 6.03965 -0.936174 0.119618 0.104157 -0.313722 1.5 0.5 0.5 
924 1 2.00882 13.1339 1.34891 -0.953804 0.0625253 -0.0026647 -0.293839 1.5 0.5 0.5 
477 1 4.50686 8.42276 0.955181 -0.260146 -0.917872 -0.287093 -0.0860976 1.5 0.5 0.5 
720 1 7.13767 13.4832 7.2246 -0.85254 -0.0552735 -0.041679 -0.518058 1.5 0.5 0.5 
907 1 3.41058 9.85677 5.05839 -0.446058 -0.127718 0.33502 0.82005 1.5 0.5 0.5 
628 1 4.40447 7.62641 4.08904 -0.349149 0.209646 -0.219694 0.886497 1.5 0.5 0.5 
123 1 1.67707 8.00047 2.44433 0.0485747 -0.420474 0.885508 -0.191618 1.5 0.5 0.5 
773 1 0.275193 11.9582 5.72556 -0.26377 0.878654 0.388208 -0.0876843 1.5 0.5 0.5 
83 1 4.80174 10.6193 4.16374 0.333064 -0.886129 -0.264449 0.18415 1.5 0.5 0.5 
214 1 6.53854 9.30446 4.44853 0.451004 -0.8065 -0.294278 0.244038 1.5 0.5 0.5 
409 1 0.119236 10.319 5.33556 -0.246073 0.0567074 0.331139 0.909164 1.5 0.5 0.5 
694 1 3.78829 8.06444 3.07813 0.216647 0.29948 -0.851852 -0.371112 1.5 0.5 0.5 
383 1 1.56311 10.8979 0.78566 -0.340299 -0.0340992 0.152895 0.927177 1.5 0.5 0.5 
879 1 4.1913 8.54004 5.58935 0.583307 0.713801 0.291903 0.255017 1.5 0.5 0.5 
698 1 6.85874 12.3661 4.30147 0.300595 0.339412 -0.807142 -0.378106 1.5 0.5 0.5 
222 1 4.53577 12.5166 2.36806 0.126022 -0.0554281 -0.10107 -0.985308 1.5 0.5 0.5 
526 1 5.71195 8.06633 0.230789 0.876863 -0.409253 -0.0560002 0.245941 1.5 0.5 0.5 
538 1 6.21868 14.438 7.13583 -0.555862 -0.0899755 0.112475 0.818701 1.5 0.5 0.5 
705 1 2.9052 10.6153 2.76068 0.347751 0.163586 -0.412735 -0.825808 1.5 0.5 0.5 
830 1 1.54772 11.8134 4.04471 -0.174729 0.349999 -0.775883 0.494951 1.5 0.5 0.5 
575 1 2.7826 11.1848 5.56518 0.788343 0.591545 0.144883 0.0871722 1.5 0.5 0.5 
358 1 2.96036 11.089 6.66823 0.135201 -0.137756 0.415421 -0.888915 1.5 0.5 0.5 
744 1 1.34238 8.20168 4.44336 -0.899575 0.2132 0.0653491 -0.375554 1.5 0.5 0.5 
295 1 3.14599 13.8684 4.45833 0.943185 -0.133315 -0.0720096 0.295709 1.5 0.5 0.5 
529 1 3.25446 10.0809 6.99392 0.898629 0.356209 0.0296084 0.254372 1.5 0.5 0.5 
129 1 7.04724 14.5298 5.60748 -0.937358 -0.113221 0.215975 -0.248789 1.5 0.5 0.5 
158 1 5.76189 9.89748 4.88224 0.873268 -0.242219 -0.084263 0.414286 1.5 0.5 0.5 
474 1 7.05108 9.09738 1.02036 -0.181279 -0.15874 0.713081 0.658374 1.5 0.5 0.5 
266 1 6.4053 11.4826 5.53281 0.504853 0.109201 -0.273764 -0.811327 1.5 0.5 0.5 
366 1 4.8161 8.17858 6.34621 0.229468 -0.852234 -0.462092 0.0866792 1.5 0.5 0.5 
834 1 5.83276 13.0249 4.88795 0.163876 0.222642 -0.8961 -0.347247 1.5 0.5 0.5 
763 1 2.04909 14.6996 1.77752 -0.410248 -0.182463 0.038084 0.892722 1.5 0.5 0.5 
138 1 1.69295 14.1319 2.99094 0.324865 0.855467 0.391083 0.0984514 1.5 0.5 0.5 
480 1 3.09341 10.265 5.95339 0.207768 0.159321 -0.381246 -0.886623 1.5 0.5 0.5 
865 1 6.88009 10.9911 3.94675 0.962936 -0.071695 -0.0130197 0.2597 1.5 0.5 0.5 
972 1 7.23872 12.4045 3.29725 -0.226294 -0.335391 0.827977 0.388276 1.5 0.5 0.5 
819 1 2.31448 14.0898 5.28008 0.393952 0.0493929 -0.235985 -0.886946 1.5 0.5 0.5 
435 1 2.00621 7.57431 4.98334 -0.141446 -0.309125 0.66034 0.669616 1.5 0.5 0.5 
500 1 3.55746 14.5172 0.228923 0.789645 0.465205 0.28665 0.279063 1.5 0.5 0.5 
558 1 0.498164 12.3889 4.57176 -0.803339 -0.55268 -0.100884 -0.197521 1.5 0.5 0.5 
487 1 7.41341 8.78416 2.89489 -0.502908 0.76166 0.375459 -0.161208 1.5 0.5 0.5 
522 1 5.14529 12.0562 7.32444 -0.350878 0.0145723 -0.155307 0.923338 1.5 0.5 0.5 
593 1 5.42771 12.1777 0.132154 0.448417 -0.851683 -0.053692 0.265848 1.5 0.5 0.5 
549 1 0.0756945 9.10172 6.01398 0.942595 0.0277267 0.212441 0.256152 1.5 0.5 0.5 
710 1 6.12959 10.3686 8.78639 -0.00312235 -0.552748 0.786339 -0.275918 1.5 0.5 0.5 
225 1 6.05967 11.7941 13.6398 0.765405 -0.449643 0.0394009 0.458721 1.5 0.5 0.5 